fubar
SP        UPBEPBE                                                     6-31+G(d,p)
Number of atoms                            I                1
Info1-9                                    I   N=           9
          11          10           0           0           0         110
           1          18         902
Charge                                     I                0
Multiplicity                               I                3
Number of electrons                        I                6
Number of alpha electrons                  I                4
Number of beta electrons                   I                2
Number of basis functions                  I               19
Number of independent functions            I               19
Number of point charges in /Mol/           I                0
Number of translation vectors              I                0
Atomic numbers                             I   N=           1
           6
Nuclear charges                            R   N=           1
  6.00000000E+00
Current cartesian coordinates              R   N=           3
  0.00000000E+00  0.00000000E+00  0.00000000E+00
Force Field                                I                0
Int Atom Types                             I   N=           1
           0
MM charges                                 R   N=           1
  0.00000000E+00
Integer atomic weights                     I   N=           1
          12
Real atomic weights                        R   N=           1
  1.20000000E+01
Atom fragment info                         I   N=           1
           0
Atom residue num                           I   N=           1
           0
Nuclear spins                              I   N=           1
           0
Nuclear ZEff                               R   N=           1
 -3.60000000E+00
Nuclear ZNuc                               R   N=           1
  6.00000000E+00
Nuclear QMom                               R   N=           1
  0.00000000E+00
Nuclear GFac                               R   N=           1
  0.00000000E+00
MicOpt                                     I   N=           1
          -1
Number of contracted shells                I                5
Number of primitive shells                 I               12
Pure/Cartesian d shells                    I                1
Pure/Cartesian f shells                    I                0
Highest angular momentum                   I                2
Largest degree of contraction              I                6
Shell types                                I   N=           5
           0          -1          -1          -1           2
Number of primitives per shell             I   N=           5
           6           3           1           1           1
Shell to atom map                          I   N=           5
           1           1           1           1           1
Primitive exponents                        R   N=          12
  3.04752488E+03  4.57369518E+02  1.03948685E+02  2.92101553E+01  9.28666296E+00
  3.16392696E+00  7.86827235E+00  1.88128854E+00  5.44249258E-01  1.68714478E-01
  4.38000000E-02  8.00000000E-01
Contraction coefficients                   R   N=          12
  1.83473713E-03  1.40373228E-02  6.88426223E-02  2.32184443E-01  4.67941348E-01
  3.62311985E-01 -1.19332420E-01 -1.60854152E-01  1.14345644E+00  1.00000000E+00
  1.00000000E+00  1.00000000E+00
P(S=P) Contraction coefficients            R   N=          12
  0.00000000E+00  0.00000000E+00  0.00000000E+00  0.00000000E+00  0.00000000E+00
  0.00000000E+00  6.89990666E-02  3.16423961E-01  7.44308291E-01  1.00000000E+00
  1.00000000E+00  0.00000000E+00
Coordinates of each shell                  R   N=          15
  0.00000000E+00  0.00000000E+00  0.00000000E+00  0.00000000E+00  0.00000000E+00
  0.00000000E+00  0.00000000E+00  0.00000000E+00  0.00000000E+00  0.00000000E+00
  0.00000000E+00  0.00000000E+00  0.00000000E+00  0.00000000E+00  0.00000000E+00
Constraint Structure                       R   N=           3
  0.00000000E+00  0.00000000E+00  0.00000000E+00
Num ILSW                                   I              100
ILSW                                       I   N=         100
           1           1           0           0           2           0
           0           0           0           0        1009          -1
           0           0           0           0           0           0
           0           0           0           0           0           0
           1           0           0           0           0           0
           0           0      100000           0          -1           0
           0           0           0           0           0           0
           0           0           0           1           0           0
           0           0           1           0           0           0
           0           0           4          41           0           0
           0           0           0           0           0           0
           0           0           0           1           0           0
           0           0           0           0           0           0
           0           0           0           0           0           0
           0           0           0           0           0           0
           0           0           0           0           0           0
           0           0           0           0
Num RLSW                                   I               41
RLSW                                       R   N=          41
  1.00000000E+00  1.00000000E+00  1.00000000E+00  1.00000000E+00  0.00000000E+00
  0.00000000E+00  0.00000000E+00  1.00000000E+00  0.00000000E+00  0.00000000E+00
  0.00000000E+00  0.00000000E+00  1.00000000E+00  0.00000000E+00  0.00000000E+00
  0.00000000E+00  0.00000000E+00  1.00000000E+00  0.00000000E+00  0.00000000E+00
  0.00000000E+00  0.00000000E+00  1.00000000E+00  0.00000000E+00  0.00000000E+00
  0.00000000E+00  0.00000000E+00  1.00000000E+00  0.00000000E+00  0.00000000E+00
  0.00000000E+00  0.00000000E+00  1.00000000E+00  0.00000000E+00  0.00000000E+00
  0.00000000E+00  0.00000000E+00  0.00000000E+00  1.00000000E+00  1.00000000E+00
  0.00000000E+00
MxBond                                     I                1
NBond                                      I   N=           1
           0
IBond                                      I   N=           1
           0
RBond                                      R   N=           1
  0.00000000E+00
Virial Ratio                               R      2.008711417338380E+00
SCF Energy                                 R     -3.778850572757518E+01
Total Energy                               R     -3.778850572757518E+01
S**2                                       R      2.002000822838699E+00
S**2 after annihilation                    R      2.000000004374992E+00
RMS Density                                R      1.344275704397544E-09
External E-field                           R   N=          35
  0.00000000E+00  0.00000000E+00  0.00000000E+00  0.00000000E+00  0.00000000E+00
  0.00000000E+00  0.00000000E+00  0.00000000E+00  0.00000000E+00  0.00000000E+00
  0.00000000E+00  0.00000000E+00  0.00000000E+00  0.00000000E+00  0.00000000E+00
  0.00000000E+00  0.00000000E+00  0.00000000E+00  0.00000000E+00  0.00000000E+00
  0.00000000E+00  0.00000000E+00  0.00000000E+00  0.00000000E+00  0.00000000E+00
  0.00000000E+00  0.00000000E+00  0.00000000E+00  0.00000000E+00  0.00000000E+00
  0.00000000E+00  0.00000000E+00  0.00000000E+00  0.00000000E+00  0.00000000E+00
IOpCl                                      I                1
IROHF                                      I                0
Alpha Orbital Energies                     R   N=          19
 -1.00442618E+01 -5.31297792E-01 -2.22541977E-01 -2.22541977E-01 -2.04881366E-01
  1.87374883E-02  5.60214529E-02  5.60214529E-02  6.23811296E-02  5.82237435E-01
  5.82237435E-01  5.97968014E-01  7.39579244E-01  1.54583384E+00  1.54583509E+00
  1.55002079E+00  1.55002079E+00  1.56962053E+00  3.78198358E+00
Beta Orbital Energies                      R   N=          19
 -1.00179198E+01 -4.37315762E-01 -1.68239142E-01 -1.11934226E-01 -1.11934226E-01
  5.12144916E-02  8.30654963E-02  9.67752704E-02  9.67752704E-02  6.23888713E-01
  6.62439980E-01  6.62439980E-01  8.06076185E-01  1.62193852E+00  1.64040318E+00
  1.64040318E+00  1.69289953E+00  1.69289973E+00  3.86387879E+00
Alpha MO coefficients                      R   N=         361
  9.91927549E-01  5.37807708E-02  0.00000000E+00  0.00000000E+00  0.00000000E+00
 -7.40488928E-03  0.00000000E+00  0.00000000E+00  0.00000000E+00  1.82021665E-03
  0.00000000E+00  0.00000000E+00  0.00000000E+00 -1.15264606E-02 -1.19459645E-02
 -1.15264606E-02  0.00000000E+00  0.00000000E+00  0.00000000E+00 -2.35501850E-01
  5.18812350E-01  0.00000000E+00  0.00000000E+00  0.00000000E+00  5.60311260E-01
  0.00000000E+00  0.00000000E+00  0.00000000E+00  2.32567382E-02  0.00000000E+00
  0.00000000E+00  0.00000000E+00 -5.77245183E-03 -1.48770711E-02 -5.77245183E-03
  0.00000000E+00  0.00000000E+00  0.00000000E+00  0.00000000E+00  0.00000000E+00
  0.00000000E+00  0.00000000E+00  6.60013812E-01  0.00000000E+00  0.00000000E+00
  0.00000000E+00  4.09911743E-01  0.00000000E+00  0.00000000E+00  0.00000000E+00
  1.08871207E-01  0.00000000E+00  0.00000000E+00  0.00000000E+00  0.00000000E+00
  0.00000000E+00  0.00000000E+00  0.00000000E+00  0.00000000E+00  6.60013812E-01
  0.00000000E+00  0.00000000E+00  0.00000000E+00  4.09911743E-01  0.00000000E+00
  0.00000000E+00  0.00000000E+00  1.08871207E-01  0.00000000E+00  0.00000000E+00
  0.00000000E+00  0.00000000E+00  0.00000000E+00  0.00000000E+00  0.00000000E+00
  0.00000000E+00  0.00000000E+00  0.00000000E+00  0.00000000E+00  6.41582316E-01
  0.00000000E+00  0.00000000E+00  0.00000000E+00  4.22319213E-01  0.00000000E+00
  0.00000000E+00  0.00000000E+00  1.21936992E-01  0.00000000E+00  0.00000000E+00
  0.00000000E+00  0.00000000E+00  0.00000000E+00  0.00000000E+00  0.00000000E+00
  8.64293414E-02 -1.81884257E-01  0.00000000E+00  0.00000000E+00  0.00000000E+00
 -7.73655180E-01  0.00000000E+00  0.00000000E+00  0.00000000E+00  1.38984158E+00
  0.00000000E+00  0.00000000E+00  0.00000000E+00  1.79607814E-02  2.11017897E-02
  1.79607814E-02  0.00000000E+00  0.00000000E+00  0.00000000E+00  0.00000000E+00
  0.00000000E+00  0.00000000E+00  0.00000000E+00 -2.64656518E-01  0.00000000E+00
  0.00000000E+00  0.00000000E+00 -3.19627568E-01  0.00000000E+00  0.00000000E+00
  0.00000000E+00  1.11780810E+00  0.00000000E+00  0.00000000E+00  0.00000000E+00
  0.00000000E+00  0.00000000E+00  0.00000000E+00  0.00000000E+00  0.00000000E+00
 -2.64656518E-01  0.00000000E+00  0.00000000E+00  0.00000000E+00 -3.19627568E-01
  0.00000000E+00  0.00000000E+00  0.00000000E+00  1.11780810E+00  0.00000000E+00
  0.00000000E+00  0.00000000E+00  0.00000000E+00  0.00000000E+00  0.00000000E+00
  0.00000000E+00  0.00000000E+00  0.00000000E+00  0.00000000E+00  0.00000000E+00
 -2.70768846E-01  0.00000000E+00  0.00000000E+00  0.00000000E+00 -3.35791944E-01
  0.00000000E+00  0.00000000E+00  0.00000000E+00  1.11920225E+00  0.00000000E+00
  0.00000000E+00  0.00000000E+00  0.00000000E+00  0.00000000E+00  0.00000000E+00
  0.00000000E+00  0.00000000E+00  0.00000000E+00  0.00000000E+00  0.00000000E+00
 -1.03908484E+00  0.00000000E+00  0.00000000E+00  0.00000000E+00  1.44574345E+00
  0.00000000E+00  0.00000000E+00  0.00000000E+00 -6.14191547E-01  0.00000000E+00
  0.00000000E+00  0.00000000E+00  0.00000000E+00  0.00000000E+00  0.00000000E+00
  0.00000000E+00  0.00000000E+00 -1.03908484E+00  0.00000000E+00  0.00000000E+00
  0.00000000E+00  1.44574345E+00  0.00000000E+00  0.00000000E+00  0.00000000E+00
 -6.14191547E-01  0.00000000E+00  0.00000000E+00  0.00000000E+00  0.00000000E+00
  0.00000000E+00  0.00000000E+00  0.00000000E+00  0.00000000E+00  0.00000000E+00
  0.00000000E+00  0.00000000E+00 -1.04900666E+00  0.00000000E+00  0.00000000E+00
  0.00000000E+00  1.43849011E+00  0.00000000E+00  0.00000000E+00  0.00000000E+00
 -6.09177172E-01  0.00000000E+00  0.00000000E+00  0.00000000E+00  0.00000000E+00
  0.00000000E+00  0.00000000E+00  0.00000000E+00  1.76216489E-02 -1.72046884E+00
  0.00000000E+00  0.00000000E+00  0.00000000E+00  2.48673096E+00  0.00000000E+00
  0.00000000E+00  0.00000000E+00 -9.24012603E-01  0.00000000E+00  0.00000000E+00
  0.00000000E+00 -9.71544957E-02 -8.61742514E-02 -9.71544957E-02  0.00000000E+00
  0.00000000E+00  0.00000000E+00  0.00000000E+00  0.00000000E+00  0.00000000E+00
  0.00000000E+00  0.00000000E+00  0.00000000E+00  0.00000000E+00  0.00000000E+00
  0.00000000E+00  0.00000000E+00  0.00000000E+00  0.00000000E+00  0.00000000E+00
  0.00000000E+00  0.00000000E+00  0.00000000E+00  0.00000000E+00  1.00000000E+00
  0.00000000E+00 -6.97256305E-16  4.16983298E-15  0.00000000E+00  0.00000000E+00
  0.00000000E+00  5.88289128E-15  0.00000000E+00  0.00000000E+00  0.00000000E+00
 -1.39046969E-15  0.00000000E+00  0.00000000E+00  0.00000000E+00  8.66025404E-01
 -7.10652544E-15 -8.66025404E-01  0.00000000E+00  0.00000000E+00  0.00000000E+00
  0.00000000E+00  0.00000000E+00  0.00000000E+00  0.00000000E+00  0.00000000E+00
  0.00000000E+00  0.00000000E+00  0.00000000E+00  0.00000000E+00  0.00000000E+00
  0.00000000E+00  0.00000000E+00  0.00000000E+00  0.00000000E+00  0.00000000E+00
  0.00000000E+00  0.00000000E+00  0.00000000E+00  1.00000000E+00  0.00000000E+00
  0.00000000E+00  0.00000000E+00  0.00000000E+00  0.00000000E+00  0.00000000E+00
  0.00000000E+00  0.00000000E+00  0.00000000E+00  0.00000000E+00  0.00000000E+00
  0.00000000E+00  0.00000000E+00  0.00000000E+00  0.00000000E+00  0.00000000E+00
  1.00000000E+00  0.00000000E+00  0.00000000E+00 -3.95221478E-04  8.85616858E-03
  0.00000000E+00  0.00000000E+00  0.00000000E+00 -1.59344224E-02  0.00000000E+00
  0.00000000E+00  0.00000000E+00  4.77157275E-03  0.00000000E+00  0.00000000E+00
  0.00000000E+00 -4.95183050E-01  1.00474164E+00 -4.95183050E-01  0.00000000E+00
  0.00000000E+00  0.00000000E+00 -4.54077460E-01  3.10011924E+00  0.00000000E+00
  0.00000000E+00  0.00000000E+00  1.17020766E+00  0.00000000E+00  0.00000000E+00
  0.00000000E+00 -3.30331916E-01  0.00000000E+00  0.00000000E+00  0.00000000E+00
 -1.79047098E+00 -1.78694692E+00 -1.79047098E+00  0.00000000E+00  0.00000000E+00
  0.00000000E+00
Beta MO coefficients                       R   N=         361
  9.92723877E-01  4.85013510E-02  0.00000000E+00  0.00000000E+00  0.00000000E+00
 -7.66510287E-03  0.00000000E+00  0.00000000E+00  0.00000000E+00  1.93971939E-03
  0.00000000E+00  0.00000000E+00  0.00000000E+00 -1.00758115E-02 -9.29937803E-03
 -1.00758115E-02  0.00000000E+00  0.00000000E+00  0.00000000E+00 -2.31950937E-01
  4.90349951E-01  0.00000000E+00  0.00000000E+00  0.00000000E+00  5.76888690E-01
  0.00000000E+00  0.00000000E+00  0.00000000E+00  4.88422079E-02  0.00000000E+00
  0.00000000E+00  0.00000000E+00 -2.39192842E-02  1.27227852E-02 -2.39192842E-02
  0.00000000E+00  0.00000000E+00  0.00000000E+00  0.00000000E+00  0.00000000E+00
  0.00000000E+00  6.32605946E-01  0.00000000E+00  0.00000000E+00  0.00000000E+00
  4.19483900E-01  0.00000000E+00  0.00000000E+00  0.00000000E+00  1.43590354E-01
  0.00000000E+00  0.00000000E+00  0.00000000E+00  0.00000000E+00  0.00000000E+00
  0.00000000E+00  0.00000000E+00  0.00000000E+00  0.00000000E+00  0.00000000E+00
  0.00000000E+00  5.87878188E-01  0.00000000E+00  0.00000000E+00  0.00000000E+00
  4.19378830E-01  0.00000000E+00  0.00000000E+00  0.00000000E+00  2.18184175E-01
  0.00000000E+00  0.00000000E+00  0.00000000E+00  0.00000000E+00  0.00000000E+00
  0.00000000E+00  0.00000000E+00  0.00000000E+00  5.87878188E-01  0.00000000E+00
  0.00000000E+00  0.00000000E+00  4.19378830E-01  0.00000000E+00  0.00000000E+00
  0.00000000E+00  2.18184175E-01  0.00000000E+00  0.00000000E+00  0.00000000E+00
  0.00000000E+00  0.00000000E+00  0.00000000E+00  0.00000000E+00  0.00000000E+00
  9.22811105E-02 -1.67105835E-01  0.00000000E+00  0.00000000E+00  0.00000000E+00
 -8.30122086E-01  0.00000000E+00  0.00000000E+00  0.00000000E+00  1.40364117E+00
  0.00000000E+00  0.00000000E+00  0.00000000E+00  2.43270719E-02  1.22617212E-02
  2.43270719E-02  0.00000000E+00  0.00000000E+00  0.00000000E+00  0.00000000E+00
  0.00000000E+00  0.00000000E+00 -2.80434412E-01  0.00000000E+00  0.00000000E+00
  0.00000000E+00 -3.49712234E-01  0.00000000E+00  0.00000000E+00  0.00000000E+00
  1.11856151E+00  0.00000000E+00  0.00000000E+00  0.00000000E+00  0.00000000E+00
  0.00000000E+00  0.00000000E+00  0.00000000E+00  0.00000000E+00  0.00000000E+00
  0.00000000E+00  0.00000000E+00 -3.04174096E-01  0.00000000E+00  0.00000000E+00
  0.00000000E+00 -4.14189807E-01  0.00000000E+00  0.00000000E+00  0.00000000E+00
  1.11778461E+00  0.00000000E+00  0.00000000E+00  0.00000000E+00  0.00000000E+00
  0.00000000E+00  0.00000000E+00  0.00000000E+00  0.00000000E+00 -3.04174096E-01
  0.00000000E+00  0.00000000E+00  0.00000000E+00 -4.14189807E-01  0.00000000E+00
  0.00000000E+00  0.00000000E+00  1.11778461E+00  0.00000000E+00  0.00000000E+00
  0.00000000E+00  0.00000000E+00  0.00000000E+00  0.00000000E+00  0.00000000E+00
  0.00000000E+00  0.00000000E+00  0.00000000E+00  0.00000000E+00 -1.05191486E+00
  0.00000000E+00  0.00000000E+00  0.00000000E+00  1.43600075E+00  0.00000000E+00
  0.00000000E+00  0.00000000E+00 -6.05624544E-01  0.00000000E+00  0.00000000E+00
  0.00000000E+00  0.00000000E+00  0.00000000E+00  0.00000000E+00  0.00000000E+00
  0.00000000E+00  0.00000000E+00  0.00000000E+00  0.00000000E+00 -1.07109101E+00
  0.00000000E+00  0.00000000E+00  0.00000000E+00  1.41877826E+00  0.00000000E+00
  0.00000000E+00  0.00000000E+00 -5.84407697E-01  0.00000000E+00  0.00000000E+00
  0.00000000E+00  0.00000000E+00  0.00000000E+00  0.00000000E+00  0.00000000E+00
  0.00000000E+00 -1.07109101E+00  0.00000000E+00  0.00000000E+00  0.00000000E+00
  1.41877826E+00  0.00000000E+00  0.00000000E+00  0.00000000E+00 -5.84407697E-01
  0.00000000E+00  0.00000000E+00  0.00000000E+00  0.00000000E+00  0.00000000E+00
  0.00000000E+00  0.00000000E+00  0.00000000E+00  1.93548850E-02 -1.71365616E+00
  0.00000000E+00  0.00000000E+00  0.00000000E+00  2.47101834E+00  0.00000000E+00
  0.00000000E+00  0.00000000E+00 -9.03483151E-01  0.00000000E+00  0.00000000E+00
  0.00000000E+00 -9.22000342E-02 -1.23913730E-01 -9.22000342E-02  0.00000000E+00
  0.00000000E+00  0.00000000E+00  9.00318886E-03 -6.81130293E-02  0.00000000E+00
  0.00000000E+00  0.00000000E+00  2.46112412E-02  0.00000000E+00  0.00000000E+00
  0.00000000E+00 -7.07071931E-03  0.00000000E+00  0.00000000E+00  0.00000000E+00
 -4.90784853E-01  1.00835683E+00 -4.90784853E-01  0.00000000E+00  0.00000000E+00
  0.00000000E+00  0.00000000E+00  0.00000000E+00  0.00000000E+00  0.00000000E+00
  0.00000000E+00  0.00000000E+00  0.00000000E+00  0.00000000E+00  0.00000000E+00
  0.00000000E+00  0.00000000E+00  0.00000000E+00  0.00000000E+00  0.00000000E+00
  0.00000000E+00  0.00000000E+00  0.00000000E+00  0.00000000E+00  1.00000000E+00
  0.00000000E+00  0.00000000E+00  0.00000000E+00  0.00000000E+00  0.00000000E+00
  0.00000000E+00  0.00000000E+00  0.00000000E+00  0.00000000E+00  0.00000000E+00
  0.00000000E+00  0.00000000E+00  0.00000000E+00  0.00000000E+00  0.00000000E+00
  0.00000000E+00  1.00000000E+00  0.00000000E+00  0.00000000E+00 -8.63440629E-16
 -3.54258809E-16  0.00000000E+00  0.00000000E+00  0.00000000E+00  1.04241817E-14
  0.00000000E+00  0.00000000E+00  0.00000000E+00 -3.24671205E-15  0.00000000E+00
  0.00000000E+00  0.00000000E+00  8.66025404E-01  1.14182423E-14 -8.66025404E-01
  0.00000000E+00  0.00000000E+00  0.00000000E+00  0.00000000E+00  0.00000000E+00
  0.00000000E+00  0.00000000E+00  0.00000000E+00  0.00000000E+00  0.00000000E+00
  0.00000000E+00  0.00000000E+00  0.00000000E+00  0.00000000E+00  0.00000000E+00
  0.00000000E+00  0.00000000E+00  0.00000000E+00  0.00000000E+00  0.00000000E+00
  1.00000000E+00  0.00000000E+00 -4.52852103E-01  3.10869661E+00  0.00000000E+00
  0.00000000E+00  0.00000000E+00  1.15651080E+00  0.00000000E+00  0.00000000E+00
  0.00000000E+00 -3.25907004E-01  0.00000000E+00  0.00000000E+00  0.00000000E+00
 -1.79172662E+00 -1.78280217E+00 -1.79172662E+00  0.00000000E+00  0.00000000E+00
  0.00000000E+00
Total SCF Density                          R   N=         190
  2.07868332E+00 -1.34423322E-01  5.14854082E-01  0.00000000E+00  0.00000000E+00
  4.35618232E-01  0.00000000E+00  0.00000000E+00  6.66848092E-18  1.63330676E-33
  0.00000000E+00  0.00000000E+00  3.15852511E-32 -6.66848092E-18  4.35618232E-01
 -2.80718655E-01  5.72803734E-01  0.00000000E+00  0.00000000E+00  0.00000000E+00
  6.46862855E-01  0.00000000E+00  0.00000000E+00  2.70547412E-01  4.14156278E-18
  1.38666956E-32  0.00000000E+00  1.68027637E-01  0.00000000E+00  0.00000000E+00
  4.14156278E-18  1.01439032E-33 -4.14156278E-18  0.00000000E+00  2.57218135E-18
  6.30002732E-34  0.00000000E+00  0.00000000E+00  1.38666956E-32 -4.14156278E-18
  2.70547412E-01  0.00000000E+00  4.62223187E-33 -2.57218135E-18  1.68027637E-01
 -1.30748720E-02  3.62076289E-02  0.00000000E+00  0.00000000E+00  0.00000000E+00
  4.11791830E-02  0.00000000E+00  0.00000000E+00  0.00000000E+00  2.93351284E-03
  0.00000000E+00  0.00000000E+00  7.18565006E-02  1.09998542E-18 -2.50370893E-32
  0.00000000E+00  4.46275864E-02  6.83162885E-19 -1.66592940E-32  0.00000000E+00
  1.18529398E-02  0.00000000E+00  0.00000000E+00  1.09998542E-18  2.69418724E-34
 -1.09998542E-18  0.00000000E+00  6.83162885E-19  1.67326648E-34 -6.83162885E-19
  0.00000000E+00  1.81445810E-19  4.44414060E-35  0.00000000E+00  0.00000000E+00
 -2.50370893E-32 -1.09998542E-18  7.18565006E-02  0.00000000E+00 -1.66592940E-32
 -6.83162885E-19  4.46275864E-02  0.00000000E+00 -9.10001899E-33 -1.81445810E-19
  1.18529398E-02 -1.45283890E-02 -1.58322316E-02  0.00000000E+00  0.00000000E+00
  0.00000000E+00 -1.68705500E-02  0.00000000E+00  0.00000000E+00  0.00000000E+00
 -1.34304396E-03  0.00000000E+00  0.00000000E+00  0.00000000E+00  8.39834631E-04
 -2.05287301E-02 -2.57328672E-03  0.00000000E+00  0.00000000E+00  0.00000000E+00
 -8.36420343E-04  0.00000000E+00  0.00000000E+00  0.00000000E+00  2.35634342E-04
  0.00000000E+00  0.00000000E+00  0.00000000E+00  1.29507313E-05  6.12381008E-04
 -1.45283890E-02 -1.58322316E-02  0.00000000E+00  0.00000000E+00  0.00000000E+00
 -1.68705500E-02  0.00000000E+00  0.00000000E+00  0.00000000E+00 -1.34304396E-03
  0.00000000E+00  0.00000000E+00  0.00000000E+00  8.39834631E-04  1.29507313E-05
  8.39834631E-04  1.06063552E-19 -2.34368476E-19  0.00000000E+00  0.00000000E+00
  0.00000000E+00 -2.83423348E-19  0.00000000E+00  0.00000000E+00  0.00000000E+00
 -2.79051186E-20  0.00000000E+00  0.00000000E+00  0.00000000E+00  1.46162098E-20
 -1.05956818E-20  1.46162098E-20  3.56521440E-36  1.14946402E-32 -1.88473181E-32
  0.00000000E+00  0.00000000E+00  0.00000000E+00 -2.10225432E-32  0.00000000E+00
  0.00000000E+00  0.00000000E+00 -1.12931017E-33  0.00000000E+00  0.00000000E+00
  0.00000000E+00  3.73541058E-34  2.25862035E-34  3.73541058E-34  0.00000000E+00
  0.00000000E+00 -1.06063552E-19  2.34368476E-19  0.00000000E+00  0.00000000E+00
  0.00000000E+00  2.83423348E-19  0.00000000E+00  0.00000000E+00  0.00000000E+00
  2.79051186E-20  0.00000000E+00  0.00000000E+00  0.00000000E+00 -1.46162098E-20
  1.05956818E-20 -1.46162098E-20  0.00000000E+00  0.00000000E+00  3.56521440E-36
Spin SCF Density                           R   N=         190
  7.94497399E-05 -3.24595891E-03  2.92631707E-02  0.00000000E+00  0.00000000E+00
  4.35618232E-01  0.00000000E+00  0.00000000E+00  6.66848092E-18  1.63330676E-33
  0.00000000E+00  0.00000000E+00  3.15852511E-32 -6.66848092E-18  4.35618232E-01
  2.11975088E-03  7.79258767E-03  0.00000000E+00  0.00000000E+00  0.00000000E+00
 -1.88557748E-02  0.00000000E+00  0.00000000E+00  2.70547412E-01  4.14156278E-18
  1.38666956E-32  0.00000000E+00  1.68027637E-01  0.00000000E+00  0.00000000E+00
  4.14156278E-18  1.01439032E-33 -4.14156278E-18  0.00000000E+00  2.57218135E-18
  6.30002732E-34  0.00000000E+00  0.00000000E+00  1.38666956E-32 -4.14156278E-18
  2.70547412E-01  0.00000000E+00  4.62223187E-33 -2.57218135E-18  1.68027637E-01
  5.73190828E-03 -1.18800776E-02  0.00000000E+00  0.00000000E+00  0.00000000E+00
 -1.51441154E-02  0.00000000E+00  0.00000000E+00  0.00000000E+00 -1.84513472E-03
  0.00000000E+00  0.00000000E+00  7.18565006E-02  1.09998542E-18 -2.50370893E-32
  0.00000000E+00  4.46275864E-02  6.83162885E-19 -1.66592940E-32  0.00000000E+00
  1.18529398E-02  0.00000000E+00  0.00000000E+00  1.09998542E-18  2.69418724E-34
 -1.09998542E-18  0.00000000E+00  6.83162885E-19  1.67326648E-34 -6.83162885E-19
  0.00000000E+00  1.81445810E-19  4.44414060E-35  0.00000000E+00  0.00000000E+00
 -2.50370893E-32 -1.09998542E-18  7.18565006E-02  0.00000000E+00 -1.66592940E-32
 -6.83162885E-19  4.46275864E-02  0.00000000E+00 -9.10001899E-33 -1.81445810E-19
  1.18529398E-02 -5.61959248E-03  8.60278908E-03  0.00000000E+00  0.00000000E+00
  0.00000000E+00  1.05725148E-02  0.00000000E+00  0.00000000E+00  0.00000000E+00
  1.03258584E-03  0.00000000E+00  0.00000000E+00  0.00000000E+00 -5.07473641E-04
  3.83682302E-03 -1.41484561E-02  0.00000000E+00  0.00000000E+00  0.00000000E+00
 -1.56582435E-02  0.00000000E+00  0.00000000E+00  0.00000000E+00 -9.71107127E-04
  0.00000000E+00  0.00000000E+00  0.00000000E+00  4.34193001E-04  1.15685619E-04
 -5.61959248E-03  8.60278908E-03  0.00000000E+00  0.00000000E+00  0.00000000E+00
  1.05725148E-02  0.00000000E+00  0.00000000E+00  0.00000000E+00  1.03258584E-03
  0.00000000E+00  0.00000000E+00  0.00000000E+00 -5.07473641E-04  4.34193001E-04
 -5.07473641E-04 -1.67154002E-19  4.02156788E-19  0.00000000E+00  0.00000000E+00
  0.00000000E+00  4.63661546E-19  0.00000000E+00  0.00000000E+00  0.00000000E+00
  3.54177858E-20  0.00000000E+00  0.00000000E+00  0.00000000E+00 -1.66451387E-20
  5.63001738E-21 -1.66451387E-20 -3.14993053E-36  8.63140453E-33 -8.33952129E-33
  0.00000000E+00  0.00000000E+00  0.00000000E+00 -8.84684217E-33  0.00000000E+00
  0.00000000E+00  0.00000000E+00 -9.38196145E-35  0.00000000E+00  0.00000000E+00
  0.00000000E+00 -1.54628624E-34  4.76047674E-34 -1.54628624E-34  0.00000000E+00
  0.00000000E+00  1.67154002E-19 -4.02156788E-19  0.00000000E+00  0.00000000E+00
  0.00000000E+00 -4.63661546E-19  0.00000000E+00  0.00000000E+00  0.00000000E+00
 -3.54177858E-20  0.00000000E+00  0.00000000E+00  0.00000000E+00  1.66451387E-20
 -5.63001738E-21  1.66451387E-20  0.00000000E+00  0.00000000E+00 -3.14993053E-36
Mulliken Charges                           R   N=           1
 -1.33226763E-14
ONIOM Charges                              I   N=          16
           0           0           0           0           0           0
           0           0           0           0           0           0
           0           0           0           0
ONIOM Multiplicities                       I   N=          16
           3           0           0           0           0           0
           0           0           0           0           0           0
           0           0           0           0
Atom Layers                                I   N=           1
           1
Atom Modifiers                             I   N=           1
           0
Force Field                                I                0
Int Atom Modified Types                    I   N=           1
           0
Link Atoms                                 I   N=           1
           0
Atom Modified MM Charges                   R   N=           1
  0.00000000E+00
Link Distances                             R   N=           4
  0.00000000E+00  0.00000000E+00  0.00000000E+00  0.00000000E+00
Cartesian Gradient                         R   N=           3
  0.00000000E+00  0.00000000E+00  0.00000000E+00
Dipole Moment                              R   N=           3
  0.00000000E+00  0.00000000E+00  0.00000000E+00
Quadrupole Moment                          R   N=           6
 -5.22215808E-01  1.04443162E+00 -5.22215808E-01 -2.39823719E-17  1.95469262E-31
  2.39823719E-17
Anisotropic Hyperfine tensors              R   N=           6
  6.41766186E-01  0.00000000E+00 -1.28353237E+00  0.00000000E+00  0.00000000E+00
  6.41766186E-01
Isotropic Hyperfine splittings             R   N=           1
  1.88502010E-02
QEq coupling tensors                       R   N=           6
  6.20384840E-01  0.00000000E+00 -1.24076968E+00  0.00000000E+00  0.00000000E+00
  6.20384840E-01
