fubar
SP        UPBEPBE                                                     6-31+G(d,p)
Number of atoms                            I                1
Info1-9                                    I   N=           9
          11          10           0           0           0         110
           1          18         902
Full Title                                 C   N=           1
fubar
Route                                      C   N=           3
#PBEPBE/6-31+g** scf=tight
Charge                                     I                2
Multiplicity                               I                3
Number of electrons                        I                6
Number of alpha electrons                  I                4
Number of beta electrons                   I                2
Number of basis functions                  I               19
Number of independent functions            I               19
Number of point charges in /Mol/           I                0
Number of translation vectors              I                0
Atomic numbers                             I   N=           1
           8
Nuclear charges                            R   N=           1
  8.00000000E+00
Current cartesian coordinates              R   N=           3
  0.00000000E+00  0.00000000E+00  0.00000000E+00
Number of symbols in /Mol/                 I                0
Int Atom Types                             I   N=           1
           0
Force Field                                I                0
Atom Types                                 C   N=           1

MM charges                                 R   N=           1
  0.00000000E+00
Integer atomic weights                     I   N=           1
          16
Real atomic weights                        R   N=           1
  1.59949146E+01
Atom fragment info                         I   N=           1
           0
Atom residue num                           I   N=           1
           0
Nuclear spins                              I   N=           1
           0
Nuclear ZEff                               R   N=           1
 -5.60000000E+00
Nuclear ZNuc                               R   N=           1
  8.00000000E+00
Nuclear QMom                               R   N=           1
  0.00000000E+00
Nuclear GFac                               R   N=           1
  0.00000000E+00
MicOpt                                     I   N=           1
          -1
Number of residues                         I                0
Number of secondary structures             I                0
SymInf integers                            I   N=          26
           1           8           1           1           1           1
          -1          -1          -1           1          -1          -1
          -1           1          -1          -1          -1          -1
           1           1           1          -1           1           1
           1          -1
RotTr to input orientation                 R   N=          12
  0.00000000E+00  0.00000000E+00 -1.00000000E+00  0.00000000E+00  1.00000000E+00
  0.00000000E+00  1.00000000E+00  0.00000000E+00  0.00000000E+00  0.00000000E+00
  0.00000000E+00  0.00000000E+00
Number of contracted shells                I                5
Number of primitive shells                 I               12
Pure/Cartesian d shells                    I                1
Pure/Cartesian f shells                    I                0
Highest angular momentum                   I                2
Largest degree of contraction              I                6
Shell types                                I   N=           5
           0          -1          -1          -1           2
Number of primitives per shell             I   N=           5
           6           3           1           1           1
Shell to atom map                          I   N=           5
           1           1           1           1           1
Primitive exponents                        R   N=          12
  5.48467166E+03  8.25234946E+02  1.88046958E+02  5.29645000E+01  1.68975704E+01
  5.79963534E+00  1.55396162E+01  3.59993359E+00  1.01376175E+00  2.70005823E-01
  8.45000000E-02  8.00000000E-01
Contraction coefficients                   R   N=          12
  1.83107443E-03  1.39501722E-02  6.84450781E-02  2.32714336E-01  4.70192898E-01
  3.58520853E-01 -1.10777550E-01 -1.48026263E-01  1.13076702E+00  1.00000000E+00
  1.00000000E+00  1.00000000E+00
P(S=P) Contraction coefficients            R   N=          12
  0.00000000E+00  0.00000000E+00  0.00000000E+00  0.00000000E+00  0.00000000E+00
  0.00000000E+00  7.08742682E-02  3.39752839E-01  7.27158577E-01  1.00000000E+00
  1.00000000E+00  0.00000000E+00
Coordinates of each shell                  R   N=          15
  0.00000000E+00  0.00000000E+00  0.00000000E+00  0.00000000E+00  0.00000000E+00
  0.00000000E+00  0.00000000E+00  0.00000000E+00  0.00000000E+00  0.00000000E+00
  0.00000000E+00  0.00000000E+00  0.00000000E+00  0.00000000E+00  0.00000000E+00
Num ILSW                                   I              100
ILSW                                       I   N=         100
           1           1           0           0           2           0
           0           0           0           0        1009          -1
           5           0           0           0           0           0
           0           0           0           0           0           0
           1           0           0           0           0           0
           0           0      100000           0          -1           0
           0           0           0           0           0           0
           0           0           0           1           0           0
           0 -2000000000           1           0           0           0
           0           1           4          52           0           0
           0           0           0           0           0           0
           0           0           0           1           0           1
           0           0           0           0           0           0
           0           0           0           0           0           0
           0           0           0           0           0           0
           0           0           0           0           0           0
           0           0           0           0
Num RLSW                                   I               52
RLSW                                       R   N=          52
  1.00000000E+00  1.00000000E+00  1.00000000E+00  1.00000000E+00  0.00000000E+00
  0.00000000E+00  0.00000000E+00  1.00000000E+00  0.00000000E+00  0.00000000E+00
  0.00000000E+00  0.00000000E+00  1.00000000E+00  0.00000000E+00  0.00000000E+00
  0.00000000E+00  0.00000000E+00  1.00000000E+00  0.00000000E+00  0.00000000E+00
  0.00000000E+00  0.00000000E+00  1.00000000E+00  0.00000000E+00  0.00000000E+00
  0.00000000E+00  0.00000000E+00  1.00000000E+00  0.00000000E+00  0.00000000E+00
  0.00000000E+00  0.00000000E+00  1.00000000E+00  0.00000000E+00  0.00000000E+00
  0.00000000E+00  0.00000000E+00  0.00000000E+00  1.00000000E+00  1.00000000E+00
  0.00000000E+00  1.00000000E+00  0.00000000E+00  0.00000000E+00  0.00000000E+00
  0.00000000E+00  0.00000000E+00  0.00000000E+00  0.00000000E+00  0.00000000E+00
  0.00000000E+00  0.00000000E+00
MxBond                                     I                1
NBond                                      I   N=           1
           0
IBond                                      I   N=           1
           0
RBond                                      R   N=           1
  0.00000000E+00
Virial Ratio                               R      2.010974962047690E+00
SCF Energy                                 R     -7.316560948290783E+01
Total Energy                               R     -7.316560948290783E+01
S**2                                       R      2.001252593016971E+00
S**2 after annihilation                    R      2.000000002279291E+00
RMS Density                                R      3.358869110546566E-10
Job Status                                 I                1
Nuclear derivative order                   I                0
External E-field                           R   N=          35
  0.00000000E+00  0.00000000E+00  0.00000000E+00  0.00000000E+00  0.00000000E+00
  0.00000000E+00  0.00000000E+00  0.00000000E+00  0.00000000E+00  0.00000000E+00
  0.00000000E+00  0.00000000E+00  0.00000000E+00  0.00000000E+00  0.00000000E+00
  0.00000000E+00  0.00000000E+00  0.00000000E+00  0.00000000E+00  0.00000000E+00
  0.00000000E+00  0.00000000E+00  0.00000000E+00  0.00000000E+00  0.00000000E+00
  0.00000000E+00  0.00000000E+00  0.00000000E+00  0.00000000E+00  0.00000000E+00
  0.00000000E+00  0.00000000E+00  0.00000000E+00  0.00000000E+00  0.00000000E+00
IOpCl                                      I                1
IROHF                                      I                0
Alpha Orbital Energies                     R   N=          19
 -2.05349259E+01 -2.20003893E+00 -1.65871196E+00 -1.65871196E+00 -1.62944278E+00
 -5.36844731E-01 -4.26716266E-01 -4.26716266E-01 -4.21377775E-01  1.23260169E-01
  1.23260169E-01  1.31398383E-01  2.81542406E-01  5.13333675E-01  5.13333675E-01
  5.14393598E-01  5.14393598E-01  5.27036998E-01  2.39568547E+00
Beta Orbital Energies                      R   N=          19
 -2.04758739E+01 -2.03904841E+00 -1.55354873E+00 -1.44989576E+00 -1.44989576E+00
 -5.00879389E-01 -4.02921712E-01 -3.85856975E-01 -3.85856975E-01  1.58511958E-01
  1.96004698E-01  1.96004698E-01  3.37520446E-01  5.92758935E-01  6.10459105E-01
  6.10459105E-01  6.63671949E-01  6.63671949E-01  2.50003729E+00
Alpha MO coefficients                      R   N=         361
  9.92530301E-01  2.63896873E-02  0.00000000E+00  0.00000000E+00  0.00000000E+00
  1.27490019E-02  0.00000000E+00  0.00000000E+00  0.00000000E+00 -2.37634332E-03
  0.00000000E+00  0.00000000E+00  0.00000000E+00 -8.69268303E-03 -8.84625485E-03
 -8.69268303E-03  0.00000000E+00  0.00000000E+00  0.00000000E+00 -2.49401841E-01
  7.11076652E-01  0.00000000E+00  0.00000000E+00  0.00000000E+00  4.14023513E-01
  0.00000000E+00  0.00000000E+00  0.00000000E+00 -5.07010732E-02  0.00000000E+00
  0.00000000E+00  0.00000000E+00 -1.97580884E-03 -6.38751625E-03 -1.97580884E-03
  0.00000000E+00  0.00000000E+00  0.00000000E+00  0.00000000E+00  0.00000000E+00
  0.00000000E+00  0.00000000E+00  8.66043985E-01  0.00000000E+00  0.00000000E+00
  0.00000000E+00  2.36199512E-01  0.00000000E+00  0.00000000E+00  0.00000000E+00
 -1.86793234E-02  0.00000000E+00  0.00000000E+00  0.00000000E+00  0.00000000E+00
  0.00000000E+00  0.00000000E+00  0.00000000E+00  0.00000000E+00  8.66043985E-01
  0.00000000E+00  0.00000000E+00  0.00000000E+00  2.36199512E-01  0.00000000E+00
  0.00000000E+00  0.00000000E+00 -1.86793234E-02  0.00000000E+00  0.00000000E+00
  0.00000000E+00  0.00000000E+00  0.00000000E+00  0.00000000E+00  0.00000000E+00
  0.00000000E+00  0.00000000E+00  0.00000000E+00  0.00000000E+00  8.56802721E-01
  0.00000000E+00  0.00000000E+00  0.00000000E+00  2.50911890E-01  0.00000000E+00
  0.00000000E+00  0.00000000E+00 -2.10557661E-02  0.00000000E+00  0.00000000E+00
  0.00000000E+00  0.00000000E+00  0.00000000E+00  0.00000000E+00  0.00000000E+00
  6.70468557E-02 -4.48196116E-01  0.00000000E+00  0.00000000E+00  0.00000000E+00
 -2.78568234E-01  0.00000000E+00  0.00000000E+00  0.00000000E+00  1.23951446E+00
  0.00000000E+00  0.00000000E+00  0.00000000E+00 -5.24213995E-03 -1.87191378E-03
 -5.24213995E-03  0.00000000E+00  0.00000000E+00  0.00000000E+00  0.00000000E+00
  0.00000000E+00  0.00000000E+00  0.00000000E+00 -3.83371921E-01  0.00000000E+00
  0.00000000E+00  0.00000000E+00  1.88956029E-01  0.00000000E+00  0.00000000E+00
  0.00000000E+00  8.83200594E-01  0.00000000E+00  0.00000000E+00  0.00000000E+00
  0.00000000E+00  0.00000000E+00  0.00000000E+00  0.00000000E+00  0.00000000E+00
 -3.83371921E-01  0.00000000E+00  0.00000000E+00  0.00000000E+00  1.88956029E-01
  0.00000000E+00  0.00000000E+00  0.00000000E+00  8.83200594E-01  0.00000000E+00
  0.00000000E+00  0.00000000E+00  0.00000000E+00  0.00000000E+00  0.00000000E+00
  0.00000000E+00  0.00000000E+00  0.00000000E+00  0.00000000E+00  0.00000000E+00
 -3.85090364E-01  0.00000000E+00  0.00000000E+00  0.00000000E+00  1.76718161E-01
  0.00000000E+00  0.00000000E+00  0.00000000E+00  8.90512045E-01  0.00000000E+00
  0.00000000E+00  0.00000000E+00  0.00000000E+00  0.00000000E+00  0.00000000E+00
  0.00000000E+00  0.00000000E+00  0.00000000E+00  0.00000000E+00  0.00000000E+00
 -7.33101726E-01  0.00000000E+00  0.00000000E+00  0.00000000E+00  1.56206377E+00
  0.00000000E+00  0.00000000E+00  0.00000000E+00 -1.08142315E+00  0.00000000E+00
  0.00000000E+00  0.00000000E+00  0.00000000E+00  0.00000000E+00  0.00000000E+00
  0.00000000E+00  0.00000000E+00 -7.33101726E-01  0.00000000E+00  0.00000000E+00
  0.00000000E+00  1.56206377E+00  0.00000000E+00  0.00000000E+00  0.00000000E+00
 -1.08142315E+00  0.00000000E+00  0.00000000E+00  0.00000000E+00  0.00000000E+00
  0.00000000E+00  0.00000000E+00  0.00000000E+00  0.00000000E+00  0.00000000E+00
  0.00000000E+00  0.00000000E+00 -7.42993178E-01  0.00000000E+00  0.00000000E+00
  0.00000000E+00  1.56120201E+00  0.00000000E+00  0.00000000E+00  0.00000000E+00
 -1.07536654E+00  0.00000000E+00  0.00000000E+00  0.00000000E+00  0.00000000E+00
  0.00000000E+00  0.00000000E+00  0.00000000E+00 -4.09497287E-02 -1.59907599E+00
  0.00000000E+00  0.00000000E+00  0.00000000E+00  3.38023881E+00  0.00000000E+00
  0.00000000E+00  0.00000000E+00 -1.56956522E+00  0.00000000E+00  0.00000000E+00
  0.00000000E+00 -3.06148857E-01 -2.86291671E-01 -3.06148857E-01  0.00000000E+00
  0.00000000E+00  0.00000000E+00  0.00000000E+00  0.00000000E+00  0.00000000E+00
  0.00000000E+00  0.00000000E+00  0.00000000E+00  0.00000000E+00  0.00000000E+00
  0.00000000E+00  0.00000000E+00  0.00000000E+00  0.00000000E+00  0.00000000E+00
  0.00000000E+00  0.00000000E+00  0.00000000E+00  1.00000000E+00  0.00000000E+00
  0.00000000E+00  0.00000000E+00  0.00000000E+00  0.00000000E+00  0.00000000E+00
  0.00000000E+00  0.00000000E+00  0.00000000E+00  0.00000000E+00  0.00000000E+00
  0.00000000E+00  0.00000000E+00  0.00000000E+00  0.00000000E+00  0.00000000E+00
  0.00000000E+00  0.00000000E+00  0.00000000E+00  0.00000000E+00  1.00000000E+00
  0.00000000E+00  0.00000000E+00  0.00000000E+00  0.00000000E+00  0.00000000E+00
  0.00000000E+00  0.00000000E+00  0.00000000E+00  0.00000000E+00  0.00000000E+00
  0.00000000E+00  0.00000000E+00  0.00000000E+00  0.00000000E+00  0.00000000E+00
  0.00000000E+00  0.00000000E+00  1.00000000E+00  0.00000000E+00 -2.29535556E-16
 -2.31217166E-14  0.00000000E+00  0.00000000E+00  0.00000000E+00  4.42222386E-14
  0.00000000E+00  0.00000000E+00  0.00000000E+00 -2.32626397E-14  0.00000000E+00
  0.00000000E+00  0.00000000E+00  8.66025404E-01  6.77628935E-14 -8.66025404E-01
  0.00000000E+00  0.00000000E+00  0.00000000E+00  1.35568018E-05  2.42790808E-02
  0.00000000E+00  0.00000000E+00  0.00000000E+00 -4.51670851E-02  0.00000000E+00
  0.00000000E+00  0.00000000E+00  1.83756961E-02  0.00000000E+00  0.00000000E+00
  0.00000000E+00 -4.95118634E-01  1.00473943E+00 -4.95118634E-01  0.00000000E+00
  0.00000000E+00  0.00000000E+00 -4.79314817E-01 -1.30677933E-02  0.00000000E+00
  0.00000000E+00  0.00000000E+00  4.26403109E+00  0.00000000E+00  0.00000000E+00
  0.00000000E+00 -1.00045483E+00  0.00000000E+00  0.00000000E+00  0.00000000E+00
 -1.64226061E+00 -1.64146570E+00 -1.64226061E+00  0.00000000E+00  0.00000000E+00
  0.00000000E+00
Beta MO coefficients                       R   N=         361
  9.93436419E-01  2.42908340E-02  0.00000000E+00  0.00000000E+00  0.00000000E+00
  9.07194437E-03  0.00000000E+00  0.00000000E+00  0.00000000E+00 -1.51273109E-03
  0.00000000E+00  0.00000000E+00  0.00000000E+00 -7.12679745E-03 -6.78583438E-03
 -7.12679745E-03  0.00000000E+00  0.00000000E+00  0.00000000E+00 -2.45201915E-01
  6.76410389E-01  0.00000000E+00  0.00000000E+00  0.00000000E+00  4.44740242E-01
  0.00000000E+00  0.00000000E+00  0.00000000E+00 -4.87594059E-02  0.00000000E+00
  0.00000000E+00  0.00000000E+00 -1.21036502E-02  2.08533102E-02 -1.21036502E-02
  0.00000000E+00  0.00000000E+00  0.00000000E+00  0.00000000E+00  0.00000000E+00
  0.00000000E+00  8.46364038E-01  0.00000000E+00  0.00000000E+00  0.00000000E+00
  2.65927859E-01  0.00000000E+00  0.00000000E+00  0.00000000E+00 -2.06427653E-02
  0.00000000E+00  0.00000000E+00  0.00000000E+00  0.00000000E+00  0.00000000E+00
  0.00000000E+00  0.00000000E+00  0.00000000E+00  0.00000000E+00  0.00000000E+00
  0.00000000E+00  8.29016533E-01  0.00000000E+00  0.00000000E+00  0.00000000E+00
  2.89788223E-01  0.00000000E+00  0.00000000E+00  0.00000000E+00 -1.88416945E-02
  0.00000000E+00  0.00000000E+00  0.00000000E+00  0.00000000E+00  0.00000000E+00
  0.00000000E+00  0.00000000E+00  0.00000000E+00  8.29016533E-01  0.00000000E+00
  0.00000000E+00  0.00000000E+00  2.89788223E-01  0.00000000E+00  0.00000000E+00
  0.00000000E+00 -1.88416945E-02  0.00000000E+00  0.00000000E+00  0.00000000E+00
  0.00000000E+00  0.00000000E+00  0.00000000E+00  0.00000000E+00  0.00000000E+00
  6.98978357E-02 -4.09179666E-01  0.00000000E+00  0.00000000E+00  0.00000000E+00
 -3.72846040E-01  0.00000000E+00  0.00000000E+00  0.00000000E+00  1.28502054E+00
  0.00000000E+00  0.00000000E+00  0.00000000E+00 -1.55090885E-03 -5.46458045E-03
 -1.55090885E-03  0.00000000E+00  0.00000000E+00  0.00000000E+00  0.00000000E+00
  0.00000000E+00  0.00000000E+00 -3.76330126E-01  0.00000000E+00  0.00000000E+00
  0.00000000E+00  1.37111442E-01  0.00000000E+00  0.00000000E+00  0.00000000E+00
  9.15870839E-01  0.00000000E+00  0.00000000E+00  0.00000000E+00  0.00000000E+00
  0.00000000E+00  0.00000000E+00  0.00000000E+00  0.00000000E+00  0.00000000E+00
 -3.64698400E-01  0.00000000E+00  0.00000000E+00  0.00000000E+00  7.88956548E-02
  0.00000000E+00  0.00000000E+00  0.00000000E+00  9.51642173E-01  0.00000000E+00
  0.00000000E+00  0.00000000E+00  0.00000000E+00  0.00000000E+00  0.00000000E+00
  0.00000000E+00  0.00000000E+00  0.00000000E+00  0.00000000E+00  0.00000000E+00
  0.00000000E+00 -3.64698400E-01  0.00000000E+00  0.00000000E+00  0.00000000E+00
  7.88956548E-02  0.00000000E+00  0.00000000E+00  0.00000000E+00  9.51642173E-01
  0.00000000E+00  0.00000000E+00  0.00000000E+00  0.00000000E+00  0.00000000E+00
  0.00000000E+00  0.00000000E+00  0.00000000E+00  0.00000000E+00 -7.59268007E-01
  0.00000000E+00  0.00000000E+00  0.00000000E+00  1.56269659E+00  0.00000000E+00
  0.00000000E+00  0.00000000E+00 -1.05386086E+00  0.00000000E+00  0.00000000E+00
  0.00000000E+00  0.00000000E+00  0.00000000E+00  0.00000000E+00  0.00000000E+00
  0.00000000E+00  0.00000000E+00  0.00000000E+00  0.00000000E+00 -7.83690639E-01
  0.00000000E+00  0.00000000E+00  0.00000000E+00  1.56247754E+00  0.00000000E+00
  0.00000000E+00  0.00000000E+00 -1.02170955E+00  0.00000000E+00  0.00000000E+00
  0.00000000E+00  0.00000000E+00  0.00000000E+00  0.00000000E+00  0.00000000E+00
  0.00000000E+00 -7.83690639E-01  0.00000000E+00  0.00000000E+00  0.00000000E+00
  1.56247754E+00  0.00000000E+00  0.00000000E+00  0.00000000E+00 -1.02170955E+00
  0.00000000E+00  0.00000000E+00  0.00000000E+00  0.00000000E+00  0.00000000E+00
  0.00000000E+00  0.00000000E+00  0.00000000E+00 -4.44791469E-02 -1.62443973E+00
  0.00000000E+00  0.00000000E+00  0.00000000E+00  3.44471592E+00  0.00000000E+00
  0.00000000E+00  0.00000000E+00 -1.54746286E+00  0.00000000E+00  0.00000000E+00
  0.00000000E+00 -3.33173870E-01 -3.27563040E-01 -3.33173870E-01  0.00000000E+00
  0.00000000E+00  0.00000000E+00  9.69257971E-03 -1.00671101E-02  0.00000000E+00
  0.00000000E+00  0.00000000E+00 -6.03249751E-02  0.00000000E+00  0.00000000E+00
  0.00000000E+00  1.87492728E-02  0.00000000E+00  0.00000000E+00  0.00000000E+00
 -4.84312998E-01  1.01525210E+00 -4.84312998E-01  0.00000000E+00  0.00000000E+00
  0.00000000E+00  0.00000000E+00  0.00000000E+00  0.00000000E+00  0.00000000E+00
  0.00000000E+00  0.00000000E+00  0.00000000E+00  0.00000000E+00  0.00000000E+00
  0.00000000E+00  0.00000000E+00  0.00000000E+00  0.00000000E+00  0.00000000E+00
  0.00000000E+00  0.00000000E+00  1.00000000E+00  0.00000000E+00  0.00000000E+00
  0.00000000E+00  0.00000000E+00  0.00000000E+00  0.00000000E+00  0.00000000E+00
  0.00000000E+00  0.00000000E+00  0.00000000E+00  0.00000000E+00  0.00000000E+00
  0.00000000E+00  0.00000000E+00  0.00000000E+00  0.00000000E+00  0.00000000E+00
  0.00000000E+00  0.00000000E+00  0.00000000E+00  1.00000000E+00  0.00000000E+00
  0.00000000E+00  0.00000000E+00  0.00000000E+00  0.00000000E+00  0.00000000E+00
  0.00000000E+00  0.00000000E+00  0.00000000E+00  0.00000000E+00  0.00000000E+00
  0.00000000E+00  0.00000000E+00  0.00000000E+00  0.00000000E+00  0.00000000E+00
  0.00000000E+00  1.00000000E+00  0.00000000E+00  6.14841111E-16 -2.39542283E-14
  0.00000000E+00  0.00000000E+00  0.00000000E+00  3.96037945E-14  0.00000000E+00
  0.00000000E+00  0.00000000E+00 -2.16949635E-14  0.00000000E+00  0.00000000E+00
  0.00000000E+00  8.66025404E-01 -9.51194756E-15 -8.66025404E-01  0.00000000E+00
  0.00000000E+00  0.00000000E+00 -4.78784490E-01  2.35708935E-02  0.00000000E+00
  0.00000000E+00  0.00000000E+00  4.20149933E+00  0.00000000E+00  0.00000000E+00
  0.00000000E+00 -9.77294461E-01  0.00000000E+00  0.00000000E+00  0.00000000E+00
 -1.64019293E+00 -1.62709905E+00 -1.64019293E+00  0.00000000E+00  0.00000000E+00
  0.00000000E+00
Orthonormal basis                          R   N=         361
  4.59663719E-02  2.16427895E-01  0.00000000E+00  0.00000000E+00  0.00000000E+00
  2.61300377E-01  0.00000000E+00  0.00000000E+00  0.00000000E+00  2.02493944E-01
  0.00000000E+00  0.00000000E+00  0.00000000E+00  1.88153971E-01  1.88153971E-01
  1.88153971E-01  0.00000000E+00  0.00000000E+00  0.00000000E+00  9.50255755E-01
  1.80379177E-01  0.00000000E+00  0.00000000E+00  0.00000000E+00 -1.50269768E-02
  0.00000000E+00  0.00000000E+00  0.00000000E+00 -1.25524514E-01  0.00000000E+00
  0.00000000E+00  0.00000000E+00 -9.45579942E-02 -9.45579942E-02 -9.45579942E-02
  0.00000000E+00  0.00000000E+00  0.00000000E+00  2.91092879E-17  1.03810830E-16
  0.00000000E+00  0.00000000E+00  0.00000000E+00 -3.40718639E-16  0.00000000E+00
  0.00000000E+00  0.00000000E+00  1.34861170E-17  0.00000000E+00  0.00000000E+00
  0.00000000E+00  8.78439709E-01 -8.53052863E-01 -2.53868459E-02  0.00000000E+00
  0.00000000E+00  0.00000000E+00 -8.44869698E-16  1.67731823E-15  0.00000000E+00
  0.00000000E+00  0.00000000E+00  1.79108161E-15  0.00000000E+00  0.00000000E+00
  0.00000000E+00 -4.38036148E-15  0.00000000E+00  0.00000000E+00  0.00000000E+00
 -4.77853198E-01 -5.21824505E-01  9.99677702E-01  0.00000000E+00  0.00000000E+00
  0.00000000E+00  2.25073338E-01 -7.19335415E-01  0.00000000E+00  0.00000000E+00
  0.00000000E+00  1.12308346E-01  0.00000000E+00  0.00000000E+00  0.00000000E+00
  1.01615881E+00  0.00000000E+00  0.00000000E+00  0.00000000E+00 -1.59043103E-01
 -1.59043103E-01 -1.59043103E-01  0.00000000E+00  0.00000000E+00  0.00000000E+00
 -3.73766816E-01  1.37221686E+00  0.00000000E+00  0.00000000E+00  0.00000000E+00
 -1.32238983E-01  0.00000000E+00  0.00000000E+00  0.00000000E+00  7.40113812E-01
  0.00000000E+00  0.00000000E+00  0.00000000E+00 -6.99993679E-01 -6.99993679E-01
 -6.99993679E-01  0.00000000E+00  0.00000000E+00  0.00000000E+00 -4.33328958E-01
 -8.86120876E-01  0.00000000E+00  0.00000000E+00  0.00000000E+00  5.45532674E+00
  0.00000000E+00  0.00000000E+00  0.00000000E+00 -1.83484263E+00  0.00000000E+00
  0.00000000E+00  0.00000000E+00 -1.49210169E+00 -1.49210169E+00 -1.49210169E+00
  0.00000000E+00  0.00000000E+00  0.00000000E+00  0.00000000E+00  0.00000000E+00
  0.00000000E+00  0.00000000E+00  0.00000000E+00  0.00000000E+00  0.00000000E+00
  0.00000000E+00  0.00000000E+00  0.00000000E+00  0.00000000E+00  0.00000000E+00
  0.00000000E+00  0.00000000E+00  0.00000000E+00  0.00000000E+00  1.00000000E+00
  0.00000000E+00  0.00000000E+00  0.00000000E+00  0.00000000E+00  0.00000000E+00
  0.00000000E+00  0.00000000E+00  0.00000000E+00  0.00000000E+00  0.00000000E+00
  0.00000000E+00  0.00000000E+00  0.00000000E+00  0.00000000E+00  0.00000000E+00
  0.00000000E+00  0.00000000E+00  0.00000000E+00  0.00000000E+00  1.00000000E+00
  0.00000000E+00  0.00000000E+00  0.00000000E+00  0.00000000E+00  0.00000000E+00
  0.00000000E+00  0.00000000E+00  0.00000000E+00  0.00000000E+00  0.00000000E+00
  0.00000000E+00  0.00000000E+00  0.00000000E+00  0.00000000E+00  0.00000000E+00
  0.00000000E+00  0.00000000E+00  0.00000000E+00  0.00000000E+00  1.00000000E+00
  0.00000000E+00  0.00000000E+00  0.00000000E+00  0.00000000E+00  3.38496871E-01
  0.00000000E+00  0.00000000E+00  0.00000000E+00  4.84301624E-01  0.00000000E+00
  0.00000000E+00  0.00000000E+00  4.13451438E-01  0.00000000E+00  0.00000000E+00
  0.00000000E+00  0.00000000E+00  0.00000000E+00  0.00000000E+00  0.00000000E+00
  0.00000000E+00  0.00000000E+00  0.00000000E+00  8.79966812E-01  0.00000000E+00
  0.00000000E+00  0.00000000E+00 -6.66489147E-02  0.00000000E+00  0.00000000E+00
  0.00000000E+00 -6.42367665E-01  0.00000000E+00  0.00000000E+00  0.00000000E+00
  0.00000000E+00  0.00000000E+00  0.00000000E+00  0.00000000E+00  0.00000000E+00
  0.00000000E+00  0.00000000E+00 -7.38595040E-01  0.00000000E+00  0.00000000E+00
  0.00000000E+00  1.51411613E+00  0.00000000E+00  0.00000000E+00  0.00000000E+00
 -1.16888405E+00  0.00000000E+00  0.00000000E+00  0.00000000E+00  0.00000000E+00
  0.00000000E+00  0.00000000E+00  0.00000000E+00  0.00000000E+00  0.00000000E+00
  3.38496871E-01  0.00000000E+00  0.00000000E+00  0.00000000E+00  4.84301624E-01
  0.00000000E+00  0.00000000E+00  0.00000000E+00  4.13451438E-01  0.00000000E+00
  0.00000000E+00  0.00000000E+00  0.00000000E+00  0.00000000E+00  0.00000000E+00
  0.00000000E+00  0.00000000E+00  0.00000000E+00  0.00000000E+00  8.79966812E-01
  0.00000000E+00  0.00000000E+00  0.00000000E+00 -6.66489147E-02  0.00000000E+00
  0.00000000E+00  0.00000000E+00 -6.42367665E-01  0.00000000E+00  0.00000000E+00
  0.00000000E+00  0.00000000E+00  0.00000000E+00  0.00000000E+00  0.00000000E+00
  0.00000000E+00  0.00000000E+00  0.00000000E+00 -7.38595040E-01  0.00000000E+00
  0.00000000E+00  0.00000000E+00  1.51411613E+00  0.00000000E+00  0.00000000E+00
  0.00000000E+00 -1.16888405E+00  0.00000000E+00  0.00000000E+00  0.00000000E+00
  0.00000000E+00  0.00000000E+00  0.00000000E+00  0.00000000E+00  0.00000000E+00
  0.00000000E+00  3.38496871E-01  0.00000000E+00  0.00000000E+00  0.00000000E+00
  4.84301624E-01  0.00000000E+00  0.00000000E+00  0.00000000E+00  4.13451438E-01
  0.00000000E+00  0.00000000E+00  0.00000000E+00  0.00000000E+00  0.00000000E+00
  0.00000000E+00  0.00000000E+00  0.00000000E+00  0.00000000E+00  0.00000000E+00
  8.79966812E-01  0.00000000E+00  0.00000000E+00  0.00000000E+00 -6.66489147E-02
  0.00000000E+00  0.00000000E+00  0.00000000E+00 -6.42367665E-01  0.00000000E+00
  0.00000000E+00  0.00000000E+00  0.00000000E+00  0.00000000E+00  0.00000000E+00
  0.00000000E+00  0.00000000E+00  0.00000000E+00  0.00000000E+00 -7.38595040E-01
  0.00000000E+00  0.00000000E+00  0.00000000E+00  1.51411613E+00  0.00000000E+00
  0.00000000E+00  0.00000000E+00 -1.16888405E+00  0.00000000E+00  0.00000000E+00
  0.00000000E+00  0.00000000E+00  0.00000000E+00  0.00000000E+00  0.00000000E+00
  0.00000000E+00
Total SCF Density                          R   N=         190
  2.09435757E+00 -2.92876985E-01  9.64447480E-01  0.00000000E+00  0.00000000E+00
  7.50032183E-01  0.00000000E+00  0.00000000E+00  1.14815564E-17  2.81217026E-33
  0.00000000E+00  0.00000000E+00  7.08742220E-32 -1.14815564E-17  7.50032183E-01
 -1.90643214E-01  5.95786181E-01  0.00000000E+00  0.00000000E+00  0.00000000E+00
  3.69454189E-01  0.00000000E+00  0.00000000E+00  2.04559166E-01  3.13140910E-18
 -5.27704805E-32  0.00000000E+00  5.57902093E-02  0.00000000E+00  0.00000000E+00
  3.13140910E-18  7.66974026E-34 -3.13140910E-18  0.00000000E+00  8.54041265E-19
  2.09179780E-34  0.00000000E+00  0.00000000E+00 -5.27704805E-32 -3.13140910E-18
  2.04559166E-01  0.00000000E+00 -3.40889600E-32 -8.54041265E-19  5.57902093E-02
  2.07394458E-02 -6.91331745E-02  0.00000000E+00  0.00000000E+00  0.00000000E+00
 -4.27207258E-02  0.00000000E+00  0.00000000E+00  0.00000000E+00  4.95601385E-03
  0.00000000E+00  0.00000000E+00 -1.61771157E-02 -2.47640661E-19  4.10223078E-32
  0.00000000E+00 -4.41204706E-03 -6.75399914E-20  1.27472488E-32  0.00000000E+00
  3.48917122E-04  0.00000000E+00  0.00000000E+00 -2.47640661E-19 -6.06544687E-35
  2.47640661E-19  0.00000000E+00 -6.75399914E-20 -1.65425269E-35  6.75399914E-20
  0.00000000E+00  5.34125297E-21  1.30822967E-36  0.00000000E+00  0.00000000E+00
  4.10223078E-32  2.47640661E-19 -1.61771157E-02  0.00000000E+00  1.27472488E-32
  6.75399914E-20 -4.41204706E-03  0.00000000E+00 -1.80179774E-33 -5.34125297E-21
  3.48917122E-04 -1.22471629E-02 -9.99449932E-03  0.00000000E+00  0.00000000E+00
  0.00000000E+00 -6.37648857E-03  0.00000000E+00  0.00000000E+00  0.00000000E+00
  7.21780148E-04  0.00000000E+00  0.00000000E+00  0.00000000E+00  2.76756149E-04
 -1.90416843E-02  9.16509851E-03  0.00000000E+00  0.00000000E+00  0.00000000E+00
  6.45538266E-03  0.00000000E+00  0.00000000E+00  0.00000000E+00 -6.61654204E-04
  0.00000000E+00  0.00000000E+00  0.00000000E+00 -1.14521704E-04  5.99964682E-04
 -1.22471629E-02 -9.99449932E-03  0.00000000E+00  0.00000000E+00  0.00000000E+00
 -6.37648857E-03  0.00000000E+00  0.00000000E+00  0.00000000E+00  7.21780148E-04
  0.00000000E+00  0.00000000E+00  0.00000000E+00  2.76756149E-04 -1.14521704E-04
  2.76756149E-04  1.20101686E-19 -3.38669917E-19  0.00000000E+00  0.00000000E+00
  0.00000000E+00 -2.26819415E-19  0.00000000E+00  0.00000000E+00  0.00000000E+00
  2.44539370E-20  0.00000000E+00  0.00000000E+00  0.00000000E+00  6.91632670E-21
 -1.26294428E-20  6.91632670E-21  2.76396789E-36  2.69644522E-33 -6.71331464E-33