 Entering Gaussian System, Link 0=g16
 Input=atom.in
 Output=atom.log
 Initial command:
 /apps/gent/CO7/cascadelake-ib/software/Gaussian/g16_C.01-intel-2019b/g16/l1.exe "/kyukon/scratch/gent/vo/000/gvo00003/vsc43080/LRC_CD/atoms/008__o_010_q-02/mult01/Gau-29556.inp" -scrdir="/kyukon/scratch/gent/vo/000/gvo00003/vsc43080/LRC_CD/atoms/008__o_010_q-02/mult01/"
 Entering Link 1 = /apps/gent/CO7/cascadelake-ib/software/Gaussian/g16_C.01-intel-2019b/g16/l1.exe.bin PID=     29557.

 Copyright (c) 1988-2019, Gaussian, Inc.  All Rights Reserved.

 This is part of the Gaussian(R) 16 program.  It is based on
 the Gaussian(R) 09 system (copyright 2009, Gaussian, Inc.),
 the Gaussian(R) 03 system (copyright 2003, Gaussian, Inc.),
 the Gaussian(R) 98 system (copyright 1998, Gaussian, Inc.),
 the Gaussian(R) 94 system (copyright 1995, Gaussian, Inc.),
 the Gaussian 92(TM) system (copyright 1992, Gaussian, Inc.),
 the Gaussian 90(TM) system (copyright 1990, Gaussian, Inc.),
 the Gaussian 88(TM) system (copyright 1988, Gaussian, Inc.),
 the Gaussian 86(TM) system (copyright 1986, Carnegie Mellon
 University), and the Gaussian 82(TM) system (copyright 1983,
 Carnegie Mellon University). Gaussian is a federally registered
 trademark of Gaussian, Inc.

 This software contains proprietary and confidential information,
 including trade secrets, belonging to Gaussian, Inc.

 This software is provided under written license and may be
 used, copied, transmitted, or stored only in accord with that
 written license.

 The following legend is applicable only to US Government
 contracts under FAR:

                    RESTRICTED RIGHTS LEGEND

 Use, reproduction and disclosure by the US Government is
 subject to restrictions as set forth in subparagraphs (a)
 and (c) of the Commercial Computer Software - Restricted
 Rights clause in FAR 52.227-19.

 Gaussian, Inc.
 340 Quinnipiac St., Bldg. 40, Wallingford CT 06492


 ---------------------------------------------------------------
 Warning -- This program may not be used in any manner that
 competes with the business of Gaussian, Inc. or will provide
 assistance to any competitor of Gaussian, Inc.  The licensee
 of this program is prohibited from giving any competitor of
 Gaussian, Inc. access to this program.  By using this program,
 the user acknowledges that Gaussian, Inc. is engaged in the
 business of creating and licensing software in the field of
 computational chemistry and represents and warrants to the
 licensee that it is not a competitor of Gaussian, Inc. and that
 it will not use this program in any manner prohibited above.
 ---------------------------------------------------------------


 Cite this work as:
 Gaussian 16, Revision C.01,
 M. J. Frisch, G. W. Trucks, H. B. Schlegel, G. E. Scuseria,
 M. A. Robb, J. R. Cheeseman, G. Scalmani, V. Barone,
 G. A. Petersson, H. Nakatsuji, X. Li, M. Caricato, A. V. Marenich,
 J. Bloino, B. G. Janesko, R. Gomperts, B. Mennucci, H. P. Hratchian,
 J. V. Ortiz, A. F. Izmaylov, J. L. Sonnenberg, D. Williams-Young,
 F. Ding, F. Lipparini, F. Egidi, J. Goings, B. Peng, A. Petrone,
 T. Henderson, D. Ranasinghe, V. G. Zakrzewski, J. Gao, N. Rega,
 G. Zheng, W. Liang, M. Hada, M. Ehara, K. Toyota, R. Fukuda,
 J. Hasegawa, M. Ishida, T. Nakajima, Y. Honda, O. Kitao, H. Nakai,
 T. Vreven, K. Throssell, J. A. Montgomery, Jr., J. E. Peralta,
 F. Ogliaro, M. J. Bearpark, J. J. Heyd, E. N. Brothers, K. N. Kudin,
 V. N. Staroverov, T. A. Keith, R. Kobayashi, J. Normand,
 K. Raghavachari, A. P. Rendell, J. C. Burant, S. S. Iyengar,
 J. Tomasi, M. Cossi, J. M. Millam, M. Klene, C. Adamo, R. Cammi,
 J. W. Ochterski, R. L. Martin, K. Morokuma, O. Farkas,
 J. B. Foresman, and D. J. Fox, Gaussian, Inc., Wallingford CT, 2019.

 ******************************************
 Gaussian 16:  ES64L-G16RevC.01  3-Jul-2019
                 3-Aug-2021
 ******************************************
 %chk=atom.chk
 %nproc=1
 Will use up to    1 processors via shared memory.
 %mem=1GB
 --------------------------
 #PBEPBE/6-31+g** scf=tight
 --------------------------
 1/38=1,172=1/1;
 2/12=2,17=6,18=5,40=1/2;
 3/5=1,6=6,7=111,11=2,25=1,30=1,74=1009/1,2,3;
 4//1;
 5/5=2,32=2,38=5/2;
 6/7=2,8=2,9=2,10=2,28=1/1;
 99/5=1,9=1/99;
 Leave Link    1 at Tue Aug  3 16:34:37 2021, MaxMem=   134217728 cpu:               0.0 elap:               0.2
 (Enter /apps/gent/CO7/cascadelake-ib/software/Gaussian/g16_C.01-intel-2019b/g16/l101.exe.bin)
 -----
 fubar
 -----
 Symbolic Z-matrix:
 Charge = -2 Multiplicity = 1
 O                     0.        0.        0.

 ITRead=  0
 MicOpt= -1
 NAtoms=      1 NQM=        1 NQMF=       0 NMMI=      0 NMMIF=      0
                NMic=       0 NMicF=      0.
                    Isotopes and Nuclear Properties:
 (Nuclear quadrupole moments (NQMom) in fm**2, nuclear magnetic moments (NMagM)
  in nuclear magnetons)

  Atom         1
 IAtWgt=          16
 AtmWgt=  15.9949146
 NucSpn=           0
 AtZEff=   0.0000000
 NQMom=    0.0000000
 NMagM=    0.0000000
 AtZNuc=   8.0000000
 Leave Link  101 at Tue Aug  3 16:34:37 2021, MaxMem=   134217728 cpu:               0.1 elap:               0.2
 (Enter /apps/gent/CO7/cascadelake-ib/software/Gaussian/g16_C.01-intel-2019b/g16/l202.exe.bin)
                          Input orientation:
 ---------------------------------------------------------------------
 Center     Atomic      Atomic             Coordinates (Angstroms)
 Number     Number       Type             X           Y           Z
 ---------------------------------------------------------------------
      1          8           0        0.000000    0.000000    0.000000
 ---------------------------------------------------------------------
 Stoichiometry    O(2-)
 Framework group  OH[O(O)]
 Deg. of freedom     0
 Full point group                 OH      NOp  48
 Largest Abelian subgroup         D2H     NOp   8
 Largest concise Abelian subgroup C1      NOp   1
                         Standard orientation:
 ---------------------------------------------------------------------
 Center     Atomic      Atomic             Coordinates (Angstroms)
 Number     Number       Type             X           Y           Z
 ---------------------------------------------------------------------
      1          8           0        0.000000    0.000000    0.000000
 ---------------------------------------------------------------------
 Leave Link  202 at Tue Aug  3 16:34:37 2021, MaxMem=   134217728 cpu:               0.0 elap:               0.0
 (Enter /apps/gent/CO7/cascadelake-ib/software/Gaussian/g16_C.01-intel-2019b/g16/l301.exe.bin)
 Standard basis: 6-31+G(d,p) (6D, 7F)
 Ernie: Thresh=  0.10000D-02 Tol=  0.10000D-05 Strict=F.
 There are     7 symmetry adapted cartesian basis functions of AG  symmetry.
 There are     1 symmetry adapted cartesian basis functions of B1G symmetry.
 There are     1 symmetry adapted cartesian basis functions of B2G symmetry.
 There are     1 symmetry adapted cartesian basis functions of B3G symmetry.
 There are     0 symmetry adapted cartesian basis functions of AU  symmetry.
 There are     3 symmetry adapted cartesian basis functions of B1U symmetry.
 There are     3 symmetry adapted cartesian basis functions of B2U symmetry.
 There are     3 symmetry adapted cartesian basis functions of B3U symmetry.
 There are     7 symmetry adapted basis functions of AG  symmetry.
 There are     1 symmetry adapted basis functions of B1G symmetry.
 There are     1 symmetry adapted basis functions of B2G symmetry.
 There are     1 symmetry adapted basis functions of B3G symmetry.
 There are     0 symmetry adapted basis functions of AU  symmetry.
 There are     3 symmetry adapted basis functions of B1U symmetry.
 There are     3 symmetry adapted basis functions of B2U symmetry.
 There are     3 symmetry adapted basis functions of B3U symmetry.
    19 basis functions,    32 primitive gaussians,    19 cartesian basis functions
     5 alpha electrons        5 beta electrons
       nuclear repulsion energy         0.0000000000 Hartrees.
 IExCor= 1009 DFT=T Ex=PBE Corr=PBE ExCW=0 ScaHFX=  0.000000
 ScaDFX=  1.000000  1.000000  1.000000  1.000000 ScalE2=  1.000000  1.000000
 IRadAn=      5 IRanWt=     -1 IRanGd=            0 ICorTp=0 IEmpDi=  4
 NAtoms=    1 NActive=    1 NUniq=    1 SFac= 1.00D+00 NAtFMM=   60 NAOKFM=F Big=F
 Integral buffers will be    131072 words long.
 Raffenetti 2 integral format.
 Two-electron integral symmetry is turned on.
 Leave Link  301 at Tue Aug  3 16:34:37 2021, MaxMem=   134217728 cpu:               0.0 elap:               0.1
 (Enter /apps/gent/CO7/cascadelake-ib/software/Gaussian/g16_C.01-intel-2019b/g16/l302.exe.bin)
 NPDir=0 NMtPBC=     1 NCelOv=     1 NCel=       1 NClECP=     1 NCelD=      1
         NCelK=      1 NCelE2=     1 NClLst=     1 CellRange=     0.0.
 One-electron integrals computed using PRISM.
 One-electron integral symmetry used in STVInt
 NBasis=    19 RedAO= T EigKep=  2.45D-02  NBF=     7     1     1     1     0     3     3     3
 NBsUse=    19 1.00D-06 EigRej= -1.00D+00 NBFU=     7     1     1     1     0     3     3     3
 Precomputing XC quadrature grid using
 IXCGrd= 4 IRadAn=           5 IRanWt=          -1 IRanGd=           0 AccXCQ= 0.00D+00.
 Generated NRdTot=       0 NPtTot=           0 NUsed=           0 NTot=          32
 NSgBfM=    19    19    19    19    19 MxSgAt=     1 MxSgA2=     1.
 Leave Link  302 at Tue Aug  3 16:34:37 2021, MaxMem=   134217728 cpu:               0.1 elap:               0.1
 (Enter /apps/gent/CO7/cascadelake-ib/software/Gaussian/g16_C.01-intel-2019b/g16/l303.exe.bin)
 DipDrv:  MaxL=1.
 Leave Link  303 at Tue Aug  3 16:34:37 2021, MaxMem=   134217728 cpu:               0.0 elap:               0.1
 (Enter /apps/gent/CO7/cascadelake-ib/software/Gaussian/g16_C.01-intel-2019b/g16/l401.exe.bin)
 ExpMin= 8.45D-02 ExpMax= 5.48D+03 ExpMxC= 8.25D+02 IAcc=3 IRadAn=         5 AccDes= 0.00D+00
 Harris functional with IExCor= 1009 and IRadAn=       5 diagonalized for initial guess.
 HarFok:  IExCor= 1009 AccDes= 0.00D+00 IRadAn=         5 IDoV= 1 UseB2=F ITyADJ=14
 ICtDFT=  3500011 ScaDFX=  1.000000  1.000000  1.000000  1.000000
 FoFCou: FMM=F IPFlag=           0 FMFlag=      100000 FMFlg1=           0
         NFxFlg=           0 DoJE=T BraDBF=F KetDBF=T FulRan=T
         wScrn=  0.000000 ICntrl=       500 IOpCl=  0 I1Cent=   200000004 NGrid=           0
         NMat0=    1 NMatS0=      1 NMatT0=    0 NMatD0=    1 NMtDS0=    0 NMtDT0=    0
 Petite list used in FoFCou.
 Harris En= -75.5197066898653
 JPrj=0 DoOrth=F DoCkMO=F.
 Initial guess orbital symmetries:
       Occupied  (A1G) (A1G) (T1U) (T1U) (T1U)
       Virtual   (A1G) (T1U) (T1U) (T1U) (T1U) (T1U) (T1U) (A1G)
                 (T2G) (T2G) (T2G) (EG) (EG) (A1G)
 The electronic state of the initial guess is 1-A1G.
 Leave Link  401 at Tue Aug  3 16:34:38 2021, MaxMem=   134217728 cpu:               0.1 elap:               0.1
 (Enter /apps/gent/CO7/cascadelake-ib/software/Gaussian/g16_C.01-intel-2019b/g16/l502.exe.bin)
 Keep J ints in memory in symmetry-blocked form, NReq=884106.
 FoFCou: FMM=F IPFlag=           0 FMFlag=           0 FMFlg1=           0
         NFxFlg=           0 DoJE=F BraDBF=F KetDBF=F FulRan=T
         wScrn=  0.000000 ICntrl=       600 IOpCl=  0 I1Cent=           0 NGrid=           0
         NMat0=    1 NMatS0=    190 NMatT0=    0 NMatD0=    1 NMtDS0=    0 NMtDT0=    0
 Petite list used in FoFCou.
 Closed shell SCF:
 Using DIIS extrapolation, IDIIS=  1040.
 NGot=   134217728 LenX=   134210631 LenY=   134209749
 Requested convergence on RMS density matrix=1.00D-08 within 128 cycles.
 Requested convergence on MAX density matrix=1.00D-06.
 Requested convergence on             energy=1.00D-06.
 No special actions if energy rises.
 Integral accuracy reduced to 1.0D-05 until final iterations.

 Cycle   1  Pass 0  IDiag  1:
 E= -74.2637672139885
 DIIS: error= 1.59D-01 at cycle   1 NSaved=   1.
 NSaved= 1 IEnMin= 1 EnMin= -74.2637672139885     IErMin= 1 ErrMin= 1.59D-01
 ErrMax= 1.59D-01  0.00D+00 EMaxC= 1.00D-01 BMatC= 4.39D-01 BMatP= 4.39D-01
 IDIUse=3 WtCom= 0.00D+00 WtEn= 1.00D+00
 Coeff-Com:  0.100D+01
 Coeff-En:   0.100D+01
 Coeff:      0.100D+01
 Gap=     0.298 Goal=   None    Shift=    0.000
 GapD=    0.298 DampG=1.000 DampE=0.250 DampFc=0.2500 IDamp=-1.
 Damping current iteration by 2.50D-01
 RMSDP=1.46D-01 MaxDP=1.30D+00              OVMax= 2.04D-01

 Cycle   2  Pass 0  IDiag  1:
 E= -74.4542589231413     Delta-E=       -0.190491709153 Rises=F Damp=T
 DIIS: error= 2.91D-02 at cycle   2 NSaved=   2.
 NSaved= 2 IEnMin= 2 EnMin= -74.4542589231413     IErMin= 2 ErrMin= 2.91D-02
 ErrMax= 2.91D-02  0.00D+00 EMaxC= 1.00D-01 BMatC= 5.79D-03 BMatP= 4.39D-01
 IDIUse=3 WtCom= 7.09D-01 WtEn= 2.91D-01
 Coeff-Com:  0.272D-01 0.973D+00
 Coeff-En:   0.308D+00 0.692D+00
 Coeff:      0.109D+00 0.891D+00
 Gap=     0.000 Goal=   None    Shift=    0.000
 RMSDP=3.57D-02 MaxDP=1.71D-01 DE=-1.90D-01 OVMax= 7.00D-01

 Cycle   3  Pass 0  IDiag  1:
 E= -74.7831223708144     Delta-E=       -0.328863447673 Rises=F Damp=F
 DIIS: error= 1.81D-02 at cycle   3 NSaved=   3.
 NSaved= 3 IEnMin= 3 EnMin= -74.7831223708144     IErMin= 3 ErrMin= 1.81D-02
 ErrMax= 1.81D-02  0.00D+00 EMaxC= 1.00D-01 BMatC= 6.34D-03 BMatP= 5.79D-03
 IDIUse=3 WtCom= 8.19D-01 WtEn= 1.81D-01
 Coeff-Com:  0.105D+00-0.790D-02 0.903D+00
 Coeff-En:   0.000D+00 0.000D+00 0.100D+01
 Coeff:      0.858D-01-0.648D-02 0.921D+00
 Gap=     0.150 Goal=   None    Shift=    0.000
 RMSDP=1.67D-03 MaxDP=1.13D-02 DE=-3.29D-01 OVMax= 5.01D-03

 Cycle   4  Pass 0  IDiag  1:
 E= -74.7866168347297     Delta-E=       -0.003494463915 Rises=F Damp=F
 DIIS: error= 6.73D-03 at cycle   4 NSaved=   4.
 NSaved= 4 IEnMin= 4 EnMin= -74.7866168347297     IErMin= 4 ErrMin= 6.73D-03
 ErrMax= 6.73D-03  0.00D+00 EMaxC= 1.00D-01 BMatC= 6.52D-04 BMatP= 5.79D-03
 IDIUse=3 WtCom= 9.33D-01 WtEn= 6.73D-02
 Coeff-Com:  0.377D-01 0.372D-02 0.392D-01 0.919D+00
 Coeff-En:   0.000D+00 0.000D+00 0.000D+00 0.100D+01
 Coeff:      0.351D-01 0.347D-02 0.366D-01 0.925D+00
 Gap=     0.154 Goal=   None    Shift=    0.000
 RMSDP=1.61D-03 MaxDP=1.19D-02 DE=-3.49D-03 OVMax= 1.19D-02

 Cycle   5  Pass 0  IDiag  1:
 E= -74.7872085670611     Delta-E=       -0.000591732331 Rises=F Damp=F
 DIIS: error= 2.02D-03 at cycle   5 NSaved=   5.
 NSaved= 5 IEnMin= 5 EnMin= -74.7872085670611     IErMin= 5 ErrMin= 2.02D-03
 ErrMax= 2.02D-03  0.00D+00 EMaxC= 1.00D-01 BMatC= 5.87D-05 BMatP= 6.52D-04
 IDIUse=3 WtCom= 9.80D-01 WtEn= 2.02D-02
 Coeff-Com: -0.115D-03 0.413D-03 0.617D-02 0.213D+00 0.780D+00
 Coeff-En:   0.000D+00 0.000D+00 0.000D+00 0.174D+00 0.826D+00
 Coeff:     -0.113D-03 0.404D-03 0.605D-02 0.212D+00 0.781D+00
 Gap=     0.153 Goal=   None    Shift=    0.000
 RMSDP=3.79D-04 MaxDP=2.78D-03 DE=-5.92D-04 OVMax= 2.83D-03

 Cycle   6  Pass 0  IDiag  1:
 E= -74.7872662885700     Delta-E=       -0.000057721509 Rises=F Damp=F
 DIIS: error= 8.85D-05 at cycle   6 NSaved=   6.
 NSaved= 6 IEnMin= 6 EnMin= -74.7872662885700     IErMin= 6 ErrMin= 8.85D-05
 ErrMax= 8.85D-05  0.00D+00 EMaxC= 1.00D-01 BMatC= 1.19D-07 BMatP= 5.87D-05
 IDIUse=1 WtCom= 1.00D+00 WtEn= 0.00D+00
 Coeff-Com:  0.443D-05-0.155D-04-0.106D-02 0.106D-02 0.360D-01 0.964D+00
 Coeff:      0.443D-05-0.155D-04-0.106D-02 0.106D-02 0.360D-01 0.964D+00
 Gap=     0.153 Goal=   None    Shift=    0.000
 RMSDP=1.29D-05 MaxDP=9.45D-05 DE=-5.77D-05 OVMax= 1.01D-04

 Cycle   7  Pass 0  IDiag  1:
 E= -74.7872663919746     Delta-E=       -0.000000103405 Rises=F Damp=F
 DIIS: error= 3.95D-06 at cycle   7 NSaved=   7.
 NSaved= 7 IEnMin= 7 EnMin= -74.7872663919746     IErMin= 7 ErrMin= 3.95D-06
 ErrMax= 3.95D-06  0.00D+00 EMaxC= 1.00D-01 BMatC= 2.31D-10 BMatP= 1.19D-07
 IDIUse=1 WtCom= 1.00D+00 WtEn= 0.00D+00
 Coeff-Com:  0.326D-06 0.369D-06 0.112D-04-0.702D-04 0.351D-03-0.345D-01
 Coeff-Com:  0.103D+01
 Coeff:      0.326D-06 0.369D-06 0.112D-04-0.702D-04 0.351D-03-0.345D-01
 Coeff:      0.103D+01
 Gap=     0.153 Goal=   None    Shift=    0.000
 RMSDP=6.33D-07 MaxDP=4.66D-06 DE=-1.03D-07 OVMax= 4.87D-06

 Initial convergence to 1.0D-05 achieved.  Increase integral accuracy.
 Cycle   8  Pass 1  IDiag  1:
 E= -74.7872663909626     Delta-E=        0.000000001012 Rises=F Damp=F
 DIIS: error= 6.81D-08 at cycle   1 NSaved=   1.
 NSaved= 1 IEnMin= 1 EnMin= -74.7872663909626     IErMin= 1 ErrMin= 6.81D-08
 ErrMax= 6.81D-08  0.00D+00 EMaxC= 1.00D-01 BMatC= 6.79D-14 BMatP= 6.79D-14
 IDIUse=1 WtCom= 1.00D+00 WtEn= 0.00D+00
 Coeff-Com:  0.100D+01
 Coeff:      0.100D+01
 Gap=     0.153 Goal=   None    Shift=    0.000
 RMSDP=6.33D-07 MaxDP=4.66D-06 DE= 1.01D-09 OVMax= 5.14D-07

 Cycle   9  Pass 1  IDiag  1:
 E= -74.7872663909611     Delta-E=        0.000000000002 Rises=F Damp=F
 DIIS: error= 3.59D-07 at cycle   2 NSaved=   2.
 NSaved= 2 IEnMin= 1 EnMin= -74.7872663909626     IErMin= 1 ErrMin= 6.81D-08
 ErrMax= 3.59D-07  0.00D+00 EMaxC= 1.00D-01 BMatC= 1.95D-12 BMatP= 6.79D-14
 IDIUse=1 WtCom= 1.00D+00 WtEn= 0.00D+00
 Coeff-Com:  0.843D+00 0.157D+00
 Coeff:      0.843D+00 0.157D+00
 Gap=     0.153 Goal=   None    Shift=    0.000
 RMSDP=5.33D-08 MaxDP=3.91D-07 DE= 1.55D-12 OVMax= 4.19D-07

 Cycle  10  Pass 1  IDiag  1:
 E= -74.7872663909629     Delta-E=       -0.000000000002 Rises=F Damp=F
 DIIS: error= 7.89D-09 at cycle   3 NSaved=   3.
 NSaved= 3 IEnMin= 3 EnMin= -74.7872663909629     IErMin= 3 ErrMin= 7.89D-09
 ErrMax= 7.89D-09  0.00D+00 EMaxC= 1.00D-01 BMatC= 9.17D-16 BMatP= 6.79D-14
 IDIUse=1 WtCom= 1.00D+00 WtEn= 0.00D+00
 Coeff-Com:  0.983D-01-0.123D-02 0.903D+00
 Coeff:      0.983D-01-0.123D-02 0.903D+00
 Gap=     0.153 Goal=   None    Shift=    0.000
 RMSDP=1.36D-09 MaxDP=1.01D-08 DE=-1.86D-12 OVMax= 1.04D-08

 SCF Done:  E(RPBE-PBE) =  -74.7872663910     A.U. after   10 cycles
            NFock= 10  Conv=0.14D-08     -V/T= 2.0056
 KE= 7.437273022204D+01 PE=-1.833774238379D+02 EE= 3.421742722491D+01
 Leave Link  502 at Tue Aug  3 16:34:38 2021, MaxMem=   134217728 cpu:               0.2 elap:               0.2
 (Enter /apps/gent/CO7/cascadelake-ib/software/Gaussian/g16_C.01-intel-2019b/g16/l601.exe.bin)
 Copying SCF densities to generalized density rwf, IOpCl= 0 IROHF=0.

 **********************************************************************

            Population analysis using the SCF Density.

 **********************************************************************

 Orbital symmetries:
       Occupied  (A1G) (A1G) (T1U) (T1U) (T1U)
       Virtual   (A1G) (T1U) (T1U) (T1U) (T1U) (T1U) (T1U) (A1G)
                 (T2G) (T2G) (T2G) (EG) (EG) (A1G)
 The electronic state is 1-A1G.
 Alpha  occ. eigenvalues --  -18.15041  -0.13829   0.37527   0.37527   0.37527
 Alpha virt. eigenvalues --    0.52851   0.58916   0.58916   0.58916   1.66236
 Alpha virt. eigenvalues --    1.66236   1.66236   1.71599   2.38082   2.38082
 Alpha virt. eigenvalues --    2.38082   2.38082   2.38082   4.17565
          Condensed to atoms (all electrons):
               1
     1  O   10.000000
 Mulliken charges:
               1
     1  O   -2.000000
 Sum of Mulliken charges =  -2.00000
 Mulliken charges with hydrogens summed into heavy atoms:
               1
     1  O   -2.000000
 Electronic spatial extent (au):  <R**2>=             33.8445
 Charge=             -2.0000 electrons
 Dipole moment (field-independent basis, Debye):
    X=              0.0000    Y=              0.0000    Z=              0.0000  Tot=              0.0000
 Quadrupole moment (field-independent basis, Debye-Ang):
   XX=            -15.1740   YY=            -15.1740   ZZ=            -15.1740
   XY=             -0.0000   XZ=              0.0000   YZ=             -0.0000
 Traceless Quadrupole moment (field-independent basis, Debye-Ang):
   XX=              0.0000   YY=              0.0000   ZZ=             -0.0000
   XY=             -0.0000   XZ=              0.0000   YZ=             -0.0000
 Octapole moment (field-independent basis, Debye-Ang**2):
  XXX=              0.0000  YYY=              0.0000  ZZZ=              0.0000  XYY=              0.0000
  XXY=              0.0000  XXZ=              0.0000  XZZ=              0.0000  YZZ=              0.0000
  YYZ=              0.0000  XYZ=              0.0000
 Hexadecapole moment (field-independent basis, Debye-Ang**3):
 XXXX=            -33.9620 YYYY=            -33.9620 ZZZZ=            -33.9620 XXXY=             -0.0000
 XXXZ=              0.0000 YYYX=             -0.0000 YYYZ=             -0.0000 ZZZX=              0.0000
 ZZZY=             -0.0000 XXYY=            -11.3207 XXZZ=            -11.3207 YYZZ=            -11.3207
 XXYZ=             -0.0000 YYXZ=              0.0000 ZZXY=             -0.0000
 N-N= 0.000000000000D+00 E-N=-1.833774235733D+02  KE= 7.437273022204D+01
 Symmetry AG   KE= 6.390409160874D+01
 Symmetry B1G  KE= 2.344859575989D-34
 Symmetry B2G  KE= 3.386554726213D-36
 Symmetry B3G  KE= 1.100130230379D-35
 Symmetry AU   KE= 0.000000000000D+00
 Symmetry B1U  KE= 3.489546204434D+00
 Symmetry B2U  KE= 3.489546204434D+00
 Symmetry B3U  KE= 3.489546204434D+00
 No NMR shielding tensors so no spin-rotation constants.
 Leave Link  601 at Tue Aug  3 16:34:38 2021, MaxMem=   134217728 cpu:               0.1 elap:               0.1
 (Enter /apps/gent/CO7/cascadelake-ib/software/Gaussian/g16_C.01-intel-2019b/g16/l9999.exe.bin)
 Unable to Open any file for archive entry.
 1\1\GINC-GLIGAR05\SP\RPBEPBE\6-31+G(d,p)\O1(2-)\VSC43080\03-Aug-2021\0
 \\#PBEPBE/6-31+g** scf=tight\\fubar\\-2,1\O,0,0.,0.,0.\\Version=ES64L-
 G16RevC.01\State=1-A1G\HF=-74.7872664\RMSD=1.365e-09\Dipole=0.,0.,0.\Q
 uadrupole=0.,0.,0.,0.,0.,0.\PG=OH [O(O1)]\\@
 The archive entry for this job was punched.


 IF YOU GIVE EVERYONE A PIECE OF YOUR MIND,
 PRETTY SOON IT WILL BE ALL GONE.
 Job cpu time:       0 days  0 hours  0 minutes  0.5 seconds.
 Elapsed time:       0 days  0 hours  0 minutes  1.2 seconds.
 File lengths (MBytes):  RWF=    136 Int=      0 D2E=      0 Chk=     16 Scr=     16
 Normal termination of Gaussian 16 at Tue Aug  3 16:34:38 2021.
