fubar
SP        UPBEPBE                                                     6-31+G(d,p)
Number of atoms                            I                1
Info1-9                                    I   N=           9
          11          10           0           0           0         110
           1          18         902
Full Title                                 C   N=           1
fubar
Route                                      C   N=           3
#PBEPBE/6-31+g** scf=tight
Charge                                     I                2
Multiplicity                               I                2
Number of electrons                        I                3
Number of alpha electrons                  I                2
Number of beta electrons                   I                1
Number of basis functions                  I               19
Number of independent functions            I               19
Number of point charges in /Mol/           I                0
Number of translation vectors              I                0
Atomic numbers                             I   N=           1
           5
Nuclear charges                            R   N=           1
  5.00000000E+00
Current cartesian coordinates              R   N=           3
  0.00000000E+00  0.00000000E+00  0.00000000E+00
Number of symbols in /Mol/                 I                0
Int Atom Types                             I   N=           1
           0
Force Field                                I                0
Atom Types                                 C   N=           1

MM charges                                 R   N=           1
  0.00000000E+00
Integer atomic weights                     I   N=           1
          11
Real atomic weights                        R   N=           1
  1.10093053E+01
Atom fragment info                         I   N=           1
           0
Atom residue num                           I   N=           1
           0
Nuclear spins                              I   N=           1
           3
Nuclear ZEff                               R   N=           1
 -2.75000000E+00
Nuclear ZNuc                               R   N=           1
  5.00000000E+00
Nuclear QMom                               R   N=           1
  4.05900000E+00
Nuclear GFac                               R   N=           1
  2.68863700E+00
MicOpt                                     I   N=           1
          -1
Number of residues                         I                0
Number of secondary structures             I                0
SymInf integers                            I   N=          26
           1           8           1           1           1           1
          -1          -1          -1           1          -1          -1
          -1           1          -1          -1          -1          -1
           1           1           1          -1           1           1
           1          -1
RotTr to input orientation                 R   N=          12
  0.00000000E+00  0.00000000E+00 -1.00000000E+00  0.00000000E+00  1.00000000E+00
  0.00000000E+00  1.00000000E+00  0.00000000E+00  0.00000000E+00  0.00000000E+00
  0.00000000E+00  0.00000000E+00
Number of contracted shells                I                5
Number of primitive shells                 I               12
Pure/Cartesian d shells                    I                1
Pure/Cartesian f shells                    I                0
Highest angular momentum                   I                2
Largest degree of contraction              I                6
Shell types                                I   N=           5
           0          -1          -1          -1           2
Number of primitives per shell             I   N=           5
           6           3           1           1           1
Shell to atom map                          I   N=           5
           1           1           1           1           1
Primitive exponents                        R   N=          12
  2.06888225E+03  3.10649570E+02  7.06830330E+01  1.98610803E+01  6.29930484E+00
  2.12702697E+00  4.72797107E+00  1.19033774E+00  3.59411683E-01  1.26751247E-01
  3.15000000E-02  6.00000000E-01
Contraction coefficients                   R   N=          12
  1.86627459E-03  1.42514817E-02  6.95516185E-02  2.32572933E-01  4.67078712E-01
  3.63431440E-01 -1.30393797E-01 -1.30788951E-01  1.13094448E+00  1.00000000E+00
  1.00000000E+00  1.00000000E+00
P(S=P) Contraction coefficients            R   N=          12
  0.00000000E+00  0.00000000E+00  0.00000000E+00  0.00000000E+00  0.00000000E+00
  0.00000000E+00  7.45975799E-02  3.07846677E-01  7.43456834E-01  1.00000000E+00
  1.00000000E+00  0.00000000E+00
Coordinates of each shell                  R   N=          15
  0.00000000E+00  0.00000000E+00  0.00000000E+00  0.00000000E+00  0.00000000E+00
  0.00000000E+00  0.00000000E+00  0.00000000E+00  0.00000000E+00  0.00000000E+00
  0.00000000E+00  0.00000000E+00  0.00000000E+00  0.00000000E+00  0.00000000E+00
Num ILSW                                   I              100
ILSW                                       I   N=         100
           1           1           0           0           2           0
           0           0           0           0        1009          -1
           5           0           0           0           0           0
           0           0           0           0           0           0
           1           0           0           0           0           0
           0           0      100000           0          -1           0
           0           0           0           0           0           0
           0           0           0           1           0           0
           0 -2000000000           1           0           0           0
           0           0           4          52           0           0
           0           0           0           0           0           0
           0           0           0           1           0           1
           0           0           0           0           0           0
           0           0           0           0           0           0
           0           0           0           0           0           0
           0           0           0           0           0           0
           0           0           0           0
Num RLSW                                   I               52
RLSW                                       R   N=          52
  1.00000000E+00  1.00000000E+00  1.00000000E+00  1.00000000E+00  0.00000000E+00
  0.00000000E+00  0.00000000E+00  1.00000000E+00  0.00000000E+00  0.00000000E+00
  0.00000000E+00  0.00000000E+00  1.00000000E+00  0.00000000E+00  0.00000000E+00
  0.00000000E+00  0.00000000E+00  1.00000000E+00  0.00000000E+00  0.00000000E+00
  0.00000000E+00  0.00000000E+00  1.00000000E+00  0.00000000E+00  0.00000000E+00
  0.00000000E+00  0.00000000E+00  1.00000000E+00  0.00000000E+00  0.00000000E+00
  0.00000000E+00  0.00000000E+00  1.00000000E+00  0.00000000E+00  0.00000000E+00
  0.00000000E+00  0.00000000E+00  0.00000000E+00  1.00000000E+00  1.00000000E+00
  0.00000000E+00  1.00000000E+00  0.00000000E+00  0.00000000E+00  0.00000000E+00
  0.00000000E+00  0.00000000E+00  0.00000000E+00  0.00000000E+00  0.00000000E+00
  0.00000000E+00  0.00000000E+00
MxBond                                     I                1
NBond                                      I   N=           1
           0
IBond                                      I   N=           1
           0
RBond                                      R   N=           1
  0.00000000E+00
Virial Ratio                               R      2.010686913403161E+00
SCF Energy                                 R     -2.338388475234096E+01
Total Energy                               R     -2.338388475234096E+01
S**2                                       R      7.500003039027792E-01
S**2 after annihilation                    R      7.500000000000004E-01
RMS Density                                R      1.970072101063797E-09
Job Status                                 I                1
Nuclear derivative order                   I                0
External E-field                           R   N=          35
  0.00000000E+00  0.00000000E+00  0.00000000E+00  0.00000000E+00  0.00000000E+00
  0.00000000E+00  0.00000000E+00  0.00000000E+00  0.00000000E+00  0.00000000E+00
  0.00000000E+00  0.00000000E+00  0.00000000E+00  0.00000000E+00  0.00000000E+00
  0.00000000E+00  0.00000000E+00  0.00000000E+00  0.00000000E+00  0.00000000E+00
  0.00000000E+00  0.00000000E+00  0.00000000E+00  0.00000000E+00  0.00000000E+00
  0.00000000E+00  0.00000000E+00  0.00000000E+00  0.00000000E+00  0.00000000E+00
  0.00000000E+00  0.00000000E+00  0.00000000E+00  0.00000000E+00  0.00000000E+00
IOpCl                                      I                1
IROHF                                      I                0
Alpha Orbital Energies                     R   N=          19
 -7.77470664E+00 -1.19942131E+00 -9.73416450E-01 -9.73416450E-01 -9.73416450E-01
 -3.81327842E-01 -3.33862424E-01 -3.33862424E-01 -3.33862424E-01 -1.13643131E-01
 -1.13643131E-01 -1.13643131E-01 -1.61066619E-02  3.05368856E-01  3.05368856E-01
  3.05368856E-01  3.05368856E-01  3.05368856E-01  2.28154381E+00
Beta Orbital Energies                      R   N=          19
 -7.74633726E+00 -1.00108964E+00 -7.88908444E-01 -7.88908444E-01 -7.88908444E-01
 -3.21877992E-01 -2.76027395E-01 -2.76027395E-01 -2.76027395E-01 -4.15406884E-02
 -4.15406884E-02 -4.15406884E-02  8.55874442E-02  5.37397600E-01  5.37397600E-01
  5.37397600E-01  5.37397600E-01  5.37397600E-01  2.41233698E+00
Alpha MO coefficients                      R   N=         361
  9.93726364E-01  4.76207002E-02  0.00000000E+00  0.00000000E+00  0.00000000E+00
 -1.37010914E-02  0.00000000E+00  0.00000000E+00  0.00000000E+00  3.08497417E-03
  0.00000000E+00  0.00000000E+00  0.00000000E+00 -7.57146598E-03 -7.57146598E-03
 -7.57146598E-03  0.00000000E+00  0.00000000E+00  0.00000000E+00 -2.53521803E-01
  7.97953144E-01  0.00000000E+00  0.00000000E+00  0.00000000E+00  3.25499642E-01
  0.00000000E+00  0.00000000E+00  0.00000000E+00 -1.59110336E-02  0.00000000E+00
  0.00000000E+00  0.00000000E+00 -2.43375520E-02 -2.43375520E-02 -2.43375520E-02
  0.00000000E+00  0.00000000E+00  0.00000000E+00  0.00000000E+00  0.00000000E+00
  0.00000000E+00  0.00000000E+00  9.03897190E-01  0.00000000E+00  0.00000000E+00
  0.00000000E+00  1.40745874E-01  0.00000000E+00  0.00000000E+00  0.00000000E+00
  9.03201884E-03  0.00000000E+00  0.00000000E+00  0.00000000E+00  0.00000000E+00
  0.00000000E+00  0.00000000E+00  0.00000000E+00  0.00000000E+00  9.03897190E-01
  0.00000000E+00  0.00000000E+00  0.00000000E+00  1.40745874E-01  0.00000000E+00
  0.00000000E+00  0.00000000E+00  9.03201884E-03  0.00000000E+00  0.00000000E+00
  0.00000000E+00  0.00000000E+00  0.00000000E+00  0.00000000E+00  0.00000000E+00
  0.00000000E+00  0.00000000E+00  0.00000000E+00  0.00000000E+00  9.03897190E-01
  0.00000000E+00  0.00000000E+00  0.00000000E+00  1.40745874E-01  0.00000000E+00
  0.00000000E+00  0.00000000E+00  9.03201884E-03  0.00000000E+00  0.00000000E+00
  0.00000000E+00  0.00000000E+00  0.00000000E+00  0.00000000E+00  0.00000000E+00
  5.80862042E-02 -8.05401758E-01  0.00000000E+00  0.00000000E+00  0.00000000E+00
  2.45999302E-01  0.00000000E+00  0.00000000E+00  0.00000000E+00  9.83258112E-01
  0.00000000E+00  0.00000000E+00  0.00000000E+00  2.30533780E-02  2.30533780E-02
  2.30533780E-02  0.00000000E+00  0.00000000E+00  0.00000000E+00  0.00000000E+00
  0.00000000E+00 -6.24267926E-01  0.00000000E+00  0.00000000E+00  0.00000000E+00
  6.56855901E-01  0.00000000E+00  0.00000000E+00  0.00000000E+00  6.09522002E-01
  0.00000000E+00  0.00000000E+00  0.00000000E+00  0.00000000E+00  0.00000000E+00
  0.00000000E+00  0.00000000E+00  0.00000000E+00  0.00000000E+00  0.00000000E+00
  0.00000000E+00 -6.24267926E-01  0.00000000E+00  0.00000000E+00  0.00000000E+00
  6.56855901E-01  0.00000000E+00  0.00000000E+00  0.00000000E+00  6.09522002E-01
  0.00000000E+00  0.00000000E+00  0.00000000E+00  0.00000000E+00  0.00000000E+00
  0.00000000E+00  0.00000000E+00  0.00000000E+00  0.00000000E+00  0.00000000E+00
  0.00000000E+00 -6.24267926E-01  0.00000000E+00  0.00000000E+00  0.00000000E+00
  6.56855901E-01  0.00000000E+00  0.00000000E+00  0.00000000E+00  6.09522002E-01
  0.00000000E+00  0.00000000E+00  0.00000000E+00  0.00000000E+00  0.00000000E+00
  0.00000000E+00  0.00000000E+00  0.00000000E+00 -7.48556790E-01  0.00000000E+00
  0.00000000E+00  0.00000000E+00  1.44229307E+00  0.00000000E+00  0.00000000E+00
  0.00000000E+00 -1.10795980E+00  0.00000000E+00  0.00000000E+00  0.00000000E+00
  0.00000000E+00  0.00000000E+00  0.00000000E+00  0.00000000E+00  0.00000000E+00
  0.00000000E+00  0.00000000E+00  0.00000000E+00 -7.48556790E-01  0.00000000E+00
  0.00000000E+00  0.00000000E+00  1.44229307E+00  0.00000000E+00  0.00000000E+00
  0.00000000E+00 -1.10795980E+00  0.00000000E+00  0.00000000E+00  0.00000000E+00
  0.00000000E+00  0.00000000E+00  0.00000000E+00  0.00000000E+00  0.00000000E+00
  0.00000000E+00  0.00000000E+00  0.00000000E+00 -7.48556790E-01  0.00000000E+00
  0.00000000E+00  0.00000000E+00  1.44229307E+00  0.00000000E+00  0.00000000E+00
  0.00000000E+00 -1.10795980E+00  0.00000000E+00  0.00000000E+00  0.00000000E+00
  0.00000000E+00  0.00000000E+00  0.00000000E+00 -1.86469477E-02 -1.96026524E+00
  0.00000000E+00  0.00000000E+00  0.00000000E+00  2.76299486E+00  0.00000000E+00
  0.00000000E+00  0.00000000E+00 -1.31229660E+00  0.00000000E+00  0.00000000E+00
  0.00000000E+00  3.66083899E-02  3.66083899E-02  3.66083899E-02  0.00000000E+00
  0.00000000E+00  0.00000000E+00  0.00000000E+00  0.00000000E+00  0.00000000E+00
  0.00000000E+00  0.00000000E+00  0.00000000E+00  0.00000000E+00  0.00000000E+00
  0.00000000E+00  0.00000000E+00  0.00000000E+00  0.00000000E+00  0.00000000E+00
  0.00000000E+00  0.00000000E+00  0.00000000E+00  0.00000000E+00  1.00000000E+00
  0.00000000E+00  0.00000000E+00  0.00000000E+00  0.00000000E+00  0.00000000E+00
  0.00000000E+00  0.00000000E+00  0.00000000E+00  0.00000000E+00  0.00000000E+00
  0.00000000E+00  0.00000000E+00  0.00000000E+00  0.00000000E+00  0.00000000E+00
  0.00000000E+00  0.00000000E+00  1.00000000E+00  0.00000000E+00  0.00000000E+00
  0.00000000E+00  0.00000000E+00  0.00000000E+00  0.00000000E+00  0.00000000E+00
  0.00000000E+00  0.00000000E+00  0.00000000E+00  0.00000000E+00  0.00000000E+00
  0.00000000E+00  0.00000000E+00  0.00000000E+00  0.00000000E+00  0.00000000E+00
  0.00000000E+00  0.00000000E+00  0.00000000E+00  1.00000000E+00  4.27523931E-17
 -3.78937609E-15  0.00000000E+00  0.00000000E+00  0.00000000E+00  5.56280152E-15
  0.00000000E+00  0.00000000E+00  0.00000000E+00 -1.99191503E-15  0.00000000E+00
  0.00000000E+00  0.00000000E+00  9.69663651E-01 -6.96525715E-01 -2.73137936E-01
  0.00000000E+00  0.00000000E+00  0.00000000E+00 -3.67655752E-16 -1.33085889E-15
  0.00000000E+00  0.00000000E+00  0.00000000E+00  3.97869539E-15  0.00000000E+00
  0.00000000E+00  0.00000000E+00 -1.48585385E-15  0.00000000E+00  0.00000000E+00
  0.00000000E+00 -2.44443049E-01 -7.17531831E-01  9.61974879E-01  0.00000000E+00
  0.00000000E+00  0.00000000E+00 -4.69518940E-01  4.03356937E+00  0.00000000E+00
  0.00000000E+00  0.00000000E+00  7.56738655E-01  0.00000000E+00  0.00000000E+00
  0.00000000E+00 -2.56550864E-01  0.00000000E+00  0.00000000E+00  0.00000000E+00
 -2.06450597E+00 -2.06450597E+00 -2.06450597E+00  0.00000000E+00  0.00000000E+00
  0.00000000E+00
Beta MO coefficients                       R   N=         361
  9.93970628E-01  4.61236154E-02  0.00000000E+00  0.00000000E+00  0.00000000E+00
 -1.27375639E-02  0.00000000E+00  0.00000000E+00  0.00000000E+00  2.84515228E-03
  0.00000000E+00  0.00000000E+00  0.00000000E+00 -7.78687098E-03 -7.78687098E-03
 -7.78687098E-03  0.00000000E+00  0.00000000E+00  0.00000000E+00 -2.63139783E-01
  9.18138896E-01  0.00000000E+00  0.00000000E+00  0.00000000E+00  3.07768233E-01
  0.00000000E+00  0.00000000E+00  0.00000000E+00  1.89569980E-05  0.00000000E+00
  0.00000000E+00  0.00000000E+00 -7.48058266E-02 -7.48058266E-02 -7.48058266E-02
  0.00000000E+00  0.00000000E+00  0.00000000E+00  0.00000000E+00  0.00000000E+00
  9.28034803E-01  0.00000000E+00  0.00000000E+00  0.00000000E+00  9.66446610E-02
  0.00000000E+00  0.00000000E+00  0.00000000E+00  3.63929884E-02  0.00000000E+00
  0.00000000E+00  0.00000000E+00  0.00000000E+00  0.00000000E+00  0.00000000E+00
  0.00000000E+00  0.00000000E+00  0.00000000E+00  0.00000000E+00  0.00000000E+00
  9.28034803E-01  0.00000000E+00  0.00000000E+00  0.00000000E+00  9.66446610E-02
  0.00000000E+00  0.00000000E+00  0.00000000E+00  3.63929884E-02  0.00000000E+00
  0.00000000E+00  0.00000000E+00  0.00000000E+00  0.00000000E+00  0.00000000E+00
  0.00000000E+00  0.00000000E+00  0.00000000E+00  0.00000000E+00  0.00000000E+00
  9.28034803E-01  0.00000000E+00  0.00000000E+00  0.00000000E+00  9.66446610E-02
  0.00000000E+00  0.00000000E+00  0.00000000E+00  3.63929884E-02  0.00000000E+00
  0.00000000E+00  0.00000000E+00  0.00000000E+00  0.00000000E+00  0.00000000E+00
  6.58316995E-02 -5.50329123E-01  0.00000000E+00  0.00000000E+00  0.00000000E+00
 -1.72088062E-01  0.00000000E+00  0.00000000E+00  0.00000000E+00  1.16797774E+00
  0.00000000E+00  0.00000000E+00  0.00000000E+00  3.65184870E-02  3.65184870E-02
  3.65184870E-02  0.00000000E+00  0.00000000E+00  0.00000000E+00  0.00000000E+00
  0.00000000E+00  0.00000000E+00 -4.37170694E-01  0.00000000E+00  0.00000000E+00
  0.00000000E+00  3.09467401E-01  0.00000000E+00  0.00000000E+00  0.00000000E+00
  8.46766551E-01  0.00000000E+00  0.00000000E+00  0.00000000E+00  0.00000000E+00
  0.00000000E+00  0.00000000E+00  0.00000000E+00  0.00000000E+00  0.00000000E+00
 -4.37170694E-01  0.00000000E+00  0.00000000E+00  0.00000000E+00  3.09467401E-01
  0.00000000E+00  0.00000000E+00  0.00000000E+00  8.46766551E-01  0.00000000E+00
  0.00000000E+00  0.00000000E+00  0.00000000E+00  0.00000000E+00  0.00000000E+00
  0.00000000E+00  0.00000000E+00  0.00000000E+00  0.00000000E+00  0.00000000E+00
  0.00000000E+00 -4.37170694E-01  0.00000000E+00  0.00000000E+00  0.00000000E+00
  3.09467401E-01  0.00000000E+00  0.00000000E+00  0.00000000E+00  8.46766551E-01
  0.00000000E+00  0.00000000E+00  0.00000000E+00  0.00000000E+00  0.00000000E+00
  0.00000000E+00  0.00000000E+00  0.00000000E+00 -8.45405838E-01  0.00000000E+00
  0.00000000E+00  0.00000000E+00  1.55768036E+00  0.00000000E+00  0.00000000E+00
  0.00000000E+00 -9.38528380E-01  0.00000000E+00  0.00000000E+00  0.00000000E+00
  0.00000000E+00  0.00000000E+00  0.00000000E+00  0.00000000E+00  0.00000000E+00
  0.00000000E+00  0.00000000E+00  0.00000000E+00 -8.45405838E-01  0.00000000E+00
  0.00000000E+00  0.00000000E+00  1.55768036E+00  0.00000000E+00  0.00000000E+00
  0.00000000E+00 -9.38528380E-01  0.00000000E+00  0.00000000E+00  0.00000000E+00
  0.00000000E+00  0.00000000E+00  0.00000000E+00  0.00000000E+00  0.00000000E+00
  0.00000000E+00  0.00000000E+00  0.00000000E+00 -8.45405838E-01  0.00000000E+00
  0.00000000E+00  0.00000000E+00  1.55768036E+00  0.00000000E+00  0.00000000E+00
  0.00000000E+00 -9.38528380E-01  0.00000000E+00  0.00000000E+00  0.00000000E+00
  0.00000000E+00  0.00000000E+00  0.00000000E+00 -1.06123653E-02 -2.07253004E+00
  0.00000000E+00  0.00000000E+00  0.00000000E+00  2.76821983E+00  0.00000000E+00
  0.00000000E+00  0.00000000E+00 -1.15182964E+00  0.00000000E+00  0.00000000E+00
  0.00000000E+00  5.23263592E-02  5.23263592E-02  5.23263592E-02  0.00000000E+00
  0.00000000E+00  0.00000000E+00  0.00000000E+00  0.00000000E+00  0.00000000E+00
  0.00000000E+00  0.00000000E+00  0.00000000E+00  0.00000000E+00  0.00000000E+00
  0.00000000E+00  0.00000000E+00  0.00000000E+00  0.00000000E+00  0.00000000E+00
  0.00000000E+00  0.00000000E+00  0.00000000E+00  1.00000000E+00  0.00000000E+00
  0.00000000E+00  0.00000000E+00  0.00000000E+00  0.00000000E+00  0.00000000E+00
  0.00000000E+00  0.00000000E+00  0.00000000E+00  0.00000000E+00  0.00000000E+00
  0.00000000E+00  0.00000000E+00  0.00000000E+00  0.00000000E+00  0.00000000E+00
  0.00000000E+00  0.00000000E+00  0.00000000E+00  1.00000000E+00  0.00000000E+00
  0.00000000E+00  0.00000000E+00  0.00000000E+00  0.00000000E+00  0.00000000E+00
  0.00000000E+00  0.00000000E+00  0.00000000E+00  0.00000000E+00  0.00000000E+00
  0.00000000E+00  0.00000000E+00  0.00000000E+00  0.00000000E+00  0.00000000E+00
  0.00000000E+00  0.00000000E+00  0.00000000E+00  1.00000000E+00 -3.09408877E-16
  3.60244690E-15  0.00000000E+00  0.00000000E+00  0.00000000E+00 -1.17178024E-15
  0.00000000E+00  0.00000000E+00  0.00000000E+00  4.04980024E-16  0.00000000E+00
  0.00000000E+00  0.00000000E+00 -6.98115604E-01 -2.71003447E-01  9.69119051E-01
  0.00000000E+00  0.00000000E+00  0.00000000E+00  2.20490224E-16  2.13575860E-15
  0.00000000E+00  0.00000000E+00  0.00000000E+00 -5.11037823E-15  0.00000000E+00
  0.00000000E+00  0.00000000E+00  2.08808963E-15  0.00000000E+00  0.00000000E+00
  0.00000000E+00 -7.15985058E-01  9.62578377E-01 -2.46593319E-01  0.00000000E+00
  0.00000000E+00  0.00000000E+00 -4.62891512E-01  3.99457648E+00  0.00000000E+00
  0.00000000E+00  0.00000000E+00  7.65446607E-01  0.00000000E+00  0.00000000E+00
  0.00000000E+00 -2.53196163E-01  0.00000000E+00  0.00000000E+00  0.00000000E+00
 -2.06275980E+00 -2.06275980E+00 -2.06275980E+00  0.00000000E+00  0.00000000E+00
  0.00000000E+00
Orthonormal basis                          R   N=         361
  6.07312040E-02  2.52111690E-01  0.00000000E+00  0.00000000E+00  0.00000000E+00
  2.50779529E-01  0.00000000E+00  0.00000000E+00  0.00000000E+00  1.67411191E-01
  0.00000000E+00  0.00000000E+00  0.00000000E+00  1.87610854E-01  1.87610854E-01
  1.87610854E-01  0.00000000E+00  0.00000000E+00  0.00000000E+00  9.96289907E-01
  2.89352924E-02  0.00000000E+00  0.00000000E+00  0.00000000E+00 -3.50646004E-02
  0.00000000E+00  0.00000000E+00  0.00000000E+00 -1.54019262E-01  0.00000000E+00
  0.00000000E+00  0.00000000E+00 -5.90278200E-02 -5.90278200E-02 -5.90278200E-02
  0.00000000E+00  0.00000000E+00  0.00000000E+00  1.19240407E-01 -3.18056307E-01
  0.00000000E+00  0.00000000E+00  0.00000000E+00  2.28215546E-01  0.00000000E+00
  0.00000000E+00  0.00000000E+00  9.53647131E-01  0.00000000E+00  0.00000000E+00
  0.00000000E+00 -2.55740160E-01 -2.55740160E-01 -2.55740160E-01  0.00000000E+00
  0.00000000E+00  0.00000000E+00 -8.26541259E-18  9.96434449E-17  0.00000000E+00
  0.00000000E+00  0.00000000E+00 -1.95282793E-16  0.00000000E+00  0.00000000E+00
  0.00000000E+00 -4.76471061E-16  0.00000000E+00  0.00000000E+00  0.00000000E+00
 -8.33609523E-01 -6.15480087E-02  8.95157531E-01  0.00000000E+00  0.00000000E+00
  0.00000000E+00  7.47312445E-18 -5.22431812E-17  0.00000000E+00  0.00000000E+00
  0.00000000E+00  4.86730027E-17  0.00000000E+00  0.00000000E+00  0.00000000E+00
  4.65560891E-17  0.00000000E+00  0.00000000E+00  0.00000000E+00 -5.52354201E-01
  9.98104124E-01 -4.45749923E-01  0.00000000E+00  0.00000000E+00  0.00000000E+00
 -1.84519472E-01 -6.86302945E-01  0.00000000E+00  0.00000000E+00  0.00000000E+00
  2.87267869E+00  0.00000000E+00  0.00000000E+00  0.00000000E+00 -1.33921742E+00
  0.00000000E+00  0.00000000E+00  0.00000000E+00 -5.54299740E-01 -5.54299740E-01
 -5.54299740E-01  0.00000000E+00  0.00000000E+00  0.00000000E+00 -4.81027622E-01
  4.55668975E+00  0.00000000E+00  0.00000000E+00  0.00000000E+00 -7.04434161E-02
  0.00000000E+00  0.00000000E+00  0.00000000E+00  1.74735284E-02  0.00000000E+00
  0.00000000E+00  0.00000000E+00 -1.96300098E+00 -1.96300098E+00 -1.96300098E+00
  0.00000000E+00  0.00000000E+00  0.00000000E+00  0.00000000E+00  0.00000000E+00
  0.00000000E+00  0.00000000E+00  0.00000000E+00  0.00000000E+00  0.00000000E+00
  0.00000000E+00  0.00000000E+00  0.00000000E+00  0.00000000E+00  0.00000000E+00
  0.00000000E+00  0.00000000E+00  0.00000000E+00  0.00000000E+00  1.00000000E+00
  0.00000000E+00  0.00000000E+00  0.00000000E+00  0.00000000E+00  0.00000000E+00
  0.00000000E+00  0.00000000E+00  0.00000000E+00  0.00000000E+00  0.00000000E+00
  0.00000000E+00  0.00000000E+00  0.00000000E+00  0.00000000E+00  0.00000000E+00
  0.00000000E+00  0.00000000E+00  0.00000000E+00  0.00000000E+00  1.00000000E+00
  0.00000000E+00  0.00000000E+00  0.00000000E+00  0.00000000E+00  0.00000000E+00
  0.00000000E+00  0.00000000E+00  0.00000000E+00  0.00000000E+00  0.00000000E+00
  0.00000000E+00  0.00000000E+00  0.00000000E+00  0.00000000E+00  0.00000000E+00
  0.00000000E+00  0.00000000E+00  0.00000000E+00  0.00000000E+00  1.00000000E+00
  0.00000000E+00  0.00000000E+00  0.00000000E+00  0.00000000E+00  3.88923426E-01
  0.00000000E+00  0.00000000E+00  0.00000000E+00  4.79994428E-01  0.00000000E+00
  0.00000000E+00  0.00000000E+00  3.65895389E-01  0.00000000E+00  0.00000000E+00
  0.00000000E+00  0.00000000E+00  0.00000000E+00  0.00000000E+00  0.00000000E+00
  0.00000000E+00  0.00000000E+00  0.00000000E+00 -7.41076485E-01  0.00000000E+00
  0.00000000E+00  0.00000000E+00 -2.33564121E-02  0.00000000E+00  0.00000000E+00
  0.00000000E+00  8.18356725E-01  0.00000000E+00  0.00000000E+00  0.00000000E+00
  0.00000000E+00  0.00000000E+00  0.00000000E+00  0.00000000E+00  0.00000000E+00
  0.00000000E+00  0.00000000E+00 -1.03277396E+00  0.00000000E+00  0.00000000E+00
  0.00000000E+00  1.51675252E+00  0.00000000E+00  0.00000000E+00  0.00000000E+00
 -8.91956499E-01  0.00000000E+00  0.00000000E+00  0.00000000E+00  0.00000000E+00
  0.00000000E+00  0.00000000E+00  0.00000000E+00  0.00000000E+00  0.00000000E+00
  3.88923426E-01  0.00000000E+00  0.00000000E+00  0.00000000E+00  4.79994428E-01
  0.00000000E+00  0.00000000E+00  0.00000000E+00  3.65895389E-01  0.00000000E+00
  0.00000000E+00  0.00000000E+00  0.00000000E+00  0.00000000E+00  0.00000000E+00
  0.00000000E+00  0.00000000E+00  0.00000000E+00  0.00000000E+00 -7.41076485E-01
  0.00000000E+00  0.00000000E+00  0.00000000E+00 -2.33564121E-02  0.00000000E+00
  0.00000000E+00  0.00000000E+00  8.18356725E-01  0.00000000E+00  0.00000000E+00
  0.00000000E+00  0.00000000E+00  0.00000000E+00  0.00000000E+00  0.00000000E+00
  0.00000000E+00  0.00000000E+00  0.00000000E+00 -1.03277396E+00  0.00000000E+00
  0.00000000E+00  0.00000000E+00  1.51675252E+00  0.00000000E+00  0.00000000E+00
  0.00000000E+00 -8.91956499E-01  0.00000000E+00  0.00000000E+00  0.00000000E+00
  0.00000000E+00  0.00000000E+00  0.00000000E+00  0.00000000E+00  0.00000000E+00
  0.00000000E+00  3.88923426E-01  0.00000000E+00  0.00000000E+00  0.00000000E+00
  4.79994428E-01  0.00000000E+00  0.00000000E+00  0.00000000E+00  3.65895389E-01
  0.00000000E+00  0.00000000E+00  0.00000000E+00  0.00000000E+00  0.00000000E+00
  0.00000000E+00  0.00000000E+00  0.00000000E+00  0.00000000E+00  0.00000000E+00
 -7.41076485E-01  0.00000000E+00  0.00000000E+00  0.00000000E+00 -2.33564121E-02
  0.00000000E+00  0.00000000E+00  0.00000000E+00  8.18356725E-01  0.00000000E+00
  0.00000000E+00  0.00000000E+00  0.00000000E+00  0.00000000E+00  0.00000000E+00
  0.00000000E+00  0.00000000E+00  0.00000000E+00  0.00000000E+00 -1.03277396E+00
  0.00000000E+00  0.00000000E+00  0.00000000E+00  1.51675252E+00  0.00000000E+00
  0.00000000E+00  0.00000000E+00 -8.91956499E-01  0.00000000E+00  0.00000000E+00
  0.00000000E+00  0.00000000E+00  0.00000000E+00  0.00000000E+00  0.00000000E+00
  0.00000000E+00
Total SCF Density                          R   N=         190
  2.03974300E+00 -1.09131055E-01  6.41124339E-01  0.00000000E+00  0.00000000E+00
  0.00000000E+00  0.00000000E+00  0.00000000E+00  0.00000000E+00  0.00000000E+00
  0.00000000E+00  0.00000000E+00  0.00000000E+00  0.00000000E+00  0.00000000E+00
 -1.08797156E-01  2.58493505E-01  0.00000000E+00  0.00000000E+00  0.00000000E+00
  1.06299982E-01  0.00000000E+00  0.00000000E+00  0.00000000E+00  0.00000000E+00
  0.00000000E+00  0.00000000E+00  0.00000000E+00  0.00000000E+00  0.00000000E+00
  0.00000000E+00  0.00000000E+00  0.00000000E+00  0.00000000E+00  0.00000000E+00
  0.00000000E+00  0.00000000E+00  0.00000000E+00  0.00000000E+00  0.00000000E+00
  0.00000000E+00  0.00000000E+00  0.00000000E+00  0.00000000E+00  0.00000000E+00
  9.92741189E-03 -1.24181219E-02  0.00000000E+00  0.00000000E+00  0.00000000E+00
 -5.25754356E-03  0.00000000E+00  0.00000000E+00  0.00000000E+00  2.70772947E-04
  0.00000000E+00  0.00000000E+00  0.00000000E+00  0.00000000E+00  0.00000000E+00
  0.00000000E+00  0.00000000E+00  0.00000000E+00  0.00000000E+00  0.00000000E+00
  0.00000000E+00  0.00000000E+00  0.00000000E+00  0.00000000E+00  0.00000000E+00
  0.00000000E+00  0.00000000E+00  0.00000000E+00  0.00000000E+00  0.00000000E+00
  0.00000000E+00  0.00000000E+00  0.00000000E+00  0.00000000E+00  0.00000000E+00
  0.00000000E+00  0.00000000E+00  0.00000000E+00  0.00000000E+00  0.00000000E+00
  0.00000000E+00  0.00000000E+00  0.00000000E+00  0.00000000E+00  0.00000000E+00
  0.00000000E+00 -9.09378635E-03 -2.01399433E-02  0.00000000E+00  0.00000000E+00
  0.00000000E+00 -7.71894134E-03  0.00000000E+00  0.00000000E+00  0.00000000E+00
  3.41722996E-04  0.00000000E+00  0.00000000E+00  0.00000000E+00  7.10278893E-04
 -9.09378635E-03 -2.01399433E-02  0.00000000E+00  0.00000000E+00  0.00000000E+00
 -7.71894134E-03  0.00000000E+00  0.00000000E+00  0.00000000E+00  3.41722996E-04
  0.00000000E+00  0.00000000E+00  0.00000000E+00  7.10278893E-04  7.10278893E-04
 -9.09378635E-03 -2.01399433E-02  0.00000000E+00  0.00000000E+00  0.00000000E+00
 -7.71894134E-03  0.00000000E+00  0.00000000E+00  0.00000000E+00  3.41722996E-04
  0.00000000E+00  0.00000000E+00  0.00000000E+00  7.10278893E-04  7.10278893E-04
  7.10278893E-04 -5.74537595E-20 -1.27242428E-19  0.00000000E+00  0.00000000E+00
  0.00000000E+00 -4.87676070E-20  0.00000000E+00  0.00000000E+00  0.00000000E+00
  2.15897648E-21  0.00000000E+00  0.00000000E+00  0.00000000E+00  4.48748091E-21
  4.48748091E-21  4.48748091E-21  1.45983265E-35  2.91792852E-22  6.46231532E-22