fubar
SP        RPBEPBE                                                     6-31+G(d,p)
Number of atoms                            I                1
Info1-9                                    I   N=           9
          11          10           0           0           0         110
           1          18         902
Full Title                                 C   N=           1
fubar
Route                                      C   N=           3
#PBEPBE/6-31+g** scf=tight
Charge                                     I               -2
Multiplicity                               I                1
Number of electrons                        I               10
Number of alpha electrons                  I                5
Number of beta electrons                   I                5
Number of basis functions                  I               19
Number of independent functions            I               19
Number of point charges in /Mol/           I                0
Number of translation vectors              I                0
Atomic numbers                             I   N=           1
           8
Nuclear charges                            R   N=           1
  8.00000000E+00
Current cartesian coordinates              R   N=           3
  0.00000000E+00  0.00000000E+00  0.00000000E+00
Number of symbols in /Mol/                 I                0
Int Atom Types                             I   N=           1
           0
Force Field                                I                0
Atom Types                                 C   N=           1

MM charges                                 R   N=           1
  0.00000000E+00
Integer atomic weights                     I   N=           1
          16
Real atomic weights                        R   N=           1
  1.59949146E+01
Atom fragment info                         I   N=           1
           0
Atom residue num                           I   N=           1
           0
Nuclear spins                              I   N=           1
           0
Nuclear ZEff                               R   N=           1
 -5.60000000E+00
Nuclear ZNuc                               R   N=           1
  8.00000000E+00
Nuclear QMom                               R   N=           1
  0.00000000E+00
Nuclear GFac                               R   N=           1
  0.00000000E+00
MicOpt                                     I   N=           1
          -1
Number of residues                         I                0
Number of secondary structures             I                0
SymInf integers                            I   N=          26
           1           8           1           1           1           1
          -1          -1          -1           1          -1          -1
          -1           1          -1          -1          -1          -1
           1           1           1          -1           1           1
           1          -1
RotTr to input orientation                 R   N=          12
  0.00000000E+00  0.00000000E+00 -1.00000000E+00  0.00000000E+00  1.00000000E+00
  0.00000000E+00  1.00000000E+00  0.00000000E+00  0.00000000E+00  0.00000000E+00
  0.00000000E+00  0.00000000E+00
Number of contracted shells                I                5
Number of primitive shells                 I               12
Pure/Cartesian d shells                    I                1
Pure/Cartesian f shells                    I                0
Highest angular momentum                   I                2
Largest degree of contraction              I                6
Shell types                                I   N=           5
           0          -1          -1          -1           2
Number of primitives per shell             I   N=           5
           6           3           1           1           1
Shell to atom map                          I   N=           5
           1           1           1           1           1
Primitive exponents                        R   N=          12
  5.48467166E+03  8.25234946E+02  1.88046958E+02  5.29645000E+01  1.68975704E+01
  5.79963534E+00  1.55396162E+01  3.59993359E+00  1.01376175E+00  2.70005823E-01
  8.45000000E-02  8.00000000E-01
Contraction coefficients                   R   N=          12
  1.83107443E-03  1.39501722E-02  6.84450781E-02  2.32714336E-01  4.70192898E-01
  3.58520853E-01 -1.10777550E-01 -1.48026263E-01  1.13076702E+00  1.00000000E+00
  1.00000000E+00  1.00000000E+00
P(S=P) Contraction coefficients            R   N=          12
  0.00000000E+00  0.00000000E+00  0.00000000E+00  0.00000000E+00  0.00000000E+00
  0.00000000E+00  7.08742682E-02  3.39752839E-01  7.27158577E-01  1.00000000E+00
  1.00000000E+00  0.00000000E+00
Coordinates of each shell                  R   N=          15
  0.00000000E+00  0.00000000E+00  0.00000000E+00  0.00000000E+00  0.00000000E+00
  0.00000000E+00  0.00000000E+00  0.00000000E+00  0.00000000E+00  0.00000000E+00
  0.00000000E+00  0.00000000E+00  0.00000000E+00  0.00000000E+00  0.00000000E+00
Num ILSW                                   I              100
ILSW                                       I   N=         100
           0           1           0           0           2           0
           0           0           0           0        1009          -1
           5           0           0           0           0           0
           0           0           0           0           0           0
           1           0           0           0           0           0
           0           0      100000           0          -1           0
           0           0           0           0           0           0
           0           0           0           1           0           0
           0 -2000000000           1           0           0           0
           0           0           4          52           0           0
           0           0           0           0           0           0
           0           0           0           1           0           1
           0           0           0           0           0           0
           0           0           0           0           0           0
           0           0           0           0           0           0
           0           0           0           0           0           0
           0           0           0           0
Num RLSW                                   I               52
RLSW                                       R   N=          52
  1.00000000E+00  1.00000000E+00  1.00000000E+00  1.00000000E+00  0.00000000E+00
  0.00000000E+00  0.00000000E+00  1.00000000E+00  0.00000000E+00  0.00000000E+00
  0.00000000E+00  0.00000000E+00  1.00000000E+00  0.00000000E+00  0.00000000E+00
  0.00000000E+00  0.00000000E+00  1.00000000E+00  0.00000000E+00  0.00000000E+00
  0.00000000E+00  0.00000000E+00  1.00000000E+00  0.00000000E+00  0.00000000E+00
  0.00000000E+00  0.00000000E+00  1.00000000E+00  0.00000000E+00  0.00000000E+00
  0.00000000E+00  0.00000000E+00  1.00000000E+00  0.00000000E+00  0.00000000E+00
  0.00000000E+00  0.00000000E+00  0.00000000E+00  1.00000000E+00  1.00000000E+00
  0.00000000E+00  1.00000000E+00  0.00000000E+00  0.00000000E+00  0.00000000E+00
  0.00000000E+00  0.00000000E+00  0.00000000E+00  0.00000000E+00  0.00000000E+00
  0.00000000E+00  0.00000000E+00
MxBond                                     I                1
NBond                                      I   N=           1
           0
IBond                                      I   N=           1
           0
RBond                                      R   N=           1
  0.00000000E+00
Virial Ratio                               R      2.005573765648810E+00
SCF Energy                                 R     -7.478726639096291E+01
Total Energy                               R     -7.478726639096291E+01
RMS Density                                R      1.364697542683603E-09
Job Status                                 I                1
Nuclear derivative order                   I                0
External E-field                           R   N=          35
  0.00000000E+00  0.00000000E+00  0.00000000E+00  0.00000000E+00  0.00000000E+00
  0.00000000E+00  0.00000000E+00  0.00000000E+00  0.00000000E+00  0.00000000E+00
  0.00000000E+00  0.00000000E+00  0.00000000E+00  0.00000000E+00  0.00000000E+00
  0.00000000E+00  0.00000000E+00  0.00000000E+00  0.00000000E+00  0.00000000E+00
  0.00000000E+00  0.00000000E+00  0.00000000E+00  0.00000000E+00  0.00000000E+00
  0.00000000E+00  0.00000000E+00  0.00000000E+00  0.00000000E+00  0.00000000E+00
  0.00000000E+00  0.00000000E+00  0.00000000E+00  0.00000000E+00  0.00000000E+00
IOpCl                                      I                0
IROHF                                      I                0
Alpha Orbital Energies                     R   N=          19
 -1.81504120E+01 -1.38289752E-01  3.75271902E-01  3.75271902E-01  3.75271902E-01
  5.28508423E-01  5.89159240E-01  5.89159240E-01  5.89159240E-01  1.66235699E+00
  1.66235699E+00  1.66235699E+00  1.71599243E+00  2.38082044E+00  2.38082044E+00
  2.38082044E+00  2.38082044E+00  2.38082044E+00  4.17564816E+00
Alpha MO coefficients                      R   N=         361
  9.92565612E-01  2.65938381E-02  0.00000000E+00  0.00000000E+00  0.00000000E+00
  1.19921023E-02  0.00000000E+00  0.00000000E+00  0.00000000E+00 -2.17723562E-03
  0.00000000E+00  0.00000000E+00  0.00000000E+00 -8.47640911E-03 -8.47640911E-03
 -8.47640911E-03  0.00000000E+00  0.00000000E+00  0.00000000E+00 -2.31561096E-01
  5.22649597E-01  0.00000000E+00  0.00000000E+00  0.00000000E+00  5.31690778E-01
  0.00000000E+00  0.00000000E+00  0.00000000E+00  5.93263285E-02  0.00000000E+00
  0.00000000E+00  0.00000000E+00 -3.13325836E-03 -3.13325836E-03 -3.13325836E-03
  0.00000000E+00  0.00000000E+00  0.00000000E+00  0.00000000E+00  0.00000000E+00
  0.00000000E+00  0.00000000E+00  5.72114219E-01  0.00000000E+00  0.00000000E+00
  0.00000000E+00  2.80214564E-01  0.00000000E+00  0.00000000E+00  0.00000000E+00
  4.32956735E-01  0.00000000E+00  0.00000000E+00  0.00000000E+00  0.00000000E+00
  0.00000000E+00  0.00000000E+00  0.00000000E+00  0.00000000E+00  0.00000000E+00
  5.72114219E-01  0.00000000E+00  0.00000000E+00  0.00000000E+00  2.80214564E-01
  0.00000000E+00  0.00000000E+00  0.00000000E+00  4.32956735E-01  0.00000000E+00
  0.00000000E+00  0.00000000E+00  0.00000000E+00  0.00000000E+00  0.00000000E+00
  0.00000000E+00  0.00000000E+00  0.00000000E+00  5.72114219E-01  0.00000000E+00
  0.00000000E+00  0.00000000E+00  2.80214564E-01  0.00000000E+00  0.00000000E+00
  0.00000000E+00  4.32956735E-01  0.00000000E+00  0.00000000E+00  0.00000000E+00
  0.00000000E+00  0.00000000E+00  0.00000000E+00  0.00000000E+00  0.00000000E+00
  1.14360794E-01 -1.53569526E-03  0.00000000E+00  0.00000000E+00  0.00000000E+00
 -1.44725725E+00  0.00000000E+00  0.00000000E+00  0.00000000E+00  1.68356723E+00
  0.00000000E+00  0.00000000E+00  0.00000000E+00  1.10826539E-01  1.10826539E-01
  1.10826539E-01  0.00000000E+00  0.00000000E+00  0.00000000E+00  0.00000000E+00
  0.00000000E+00  0.00000000E+00 -3.74738299E-01  0.00000000E+00  0.00000000E+00
  0.00000000E+00 -6.30505482E-01  0.00000000E+00  0.00000000E+00  0.00000000E+00
  1.16452480E+00  0.00000000E+00  0.00000000E+00  0.00000000E+00  0.00000000E+00
  0.00000000E+00  0.00000000E+00  0.00000000E+00  0.00000000E+00  0.00000000E+00
  0.00000000E+00  0.00000000E+00 -3.74738299E-01  0.00000000E+00  0.00000000E+00
  0.00000000E+00 -6.30505482E-01  0.00000000E+00  0.00000000E+00  0.00000000E+00
  1.16452480E+00  0.00000000E+00  0.00000000E+00  0.00000000E+00  0.00000000E+00
  0.00000000E+00  0.00000000E+00  0.00000000E+00  0.00000000E+00 -3.74738299E-01
  0.00000000E+00  0.00000000E+00  0.00000000E+00 -6.30505482E-01  0.00000000E+00
  0.00000000E+00  0.00000000E+00  1.16452480E+00  0.00000000E+00  0.00000000E+00
  0.00000000E+00  0.00000000E+00  0.00000000E+00  0.00000000E+00  0.00000000E+00
  0.00000000E+00  0.00000000E+00  0.00000000E+00  0.00000000E+00 -9.83209480E-01
  0.00000000E+00  0.00000000E+00  0.00000000E+00  1.43369468E+00  0.00000000E+00
  0.00000000E+00  0.00000000E+00 -6.37415633E-01  0.00000000E+00  0.00000000E+00
  0.00000000E+00  0.00000000E+00  0.00000000E+00  0.00000000E+00  0.00000000E+00
  0.00000000E+00  0.00000000E+00  0.00000000E+00  0.00000000E+00 -9.83209480E-01
  0.00000000E+00  0.00000000E+00  0.00000000E+00  1.43369468E+00  0.00000000E+00
  0.00000000E+00  0.00000000E+00 -6.37415633E-01  0.00000000E+00  0.00000000E+00
  0.00000000E+00  0.00000000E+00  0.00000000E+00  0.00000000E+00  0.00000000E+00
  0.00000000E+00 -9.83209480E-01  0.00000000E+00  0.00000000E+00  0.00000000E+00
  1.43369468E+00  0.00000000E+00  0.00000000E+00  0.00000000E+00 -6.37415633E-01
  0.00000000E+00  0.00000000E+00  0.00000000E+00  0.00000000E+00  0.00000000E+00
  0.00000000E+00  0.00000000E+00  0.00000000E+00 -5.44727912E-02 -1.71464739E+00
  0.00000000E+00  0.00000000E+00  0.00000000E+00  3.60612106E+00  0.00000000E+00
  0.00000000E+00  0.00000000E+00 -1.21881755E+00  0.00000000E+00  0.00000000E+00
  0.00000000E+00 -5.02018837E-01 -5.02018837E-01 -5.02018837E-01  0.00000000E+00
  0.00000000E+00  0.00000000E+00  0.00000000E+00  0.00000000E+00  0.00000000E+00
  0.00000000E+00  0.00000000E+00  0.00000000E+00  0.00000000E+00  0.00000000E+00
  0.00000000E+00  0.00000000E+00  0.00000000E+00  0.00000000E+00  0.00000000E+00
  0.00000000E+00  0.00000000E+00  0.00000000E+00  0.00000000E+00  1.00000000E+00
  0.00000000E+00  0.00000000E+00  0.00000000E+00  0.00000000E+00  0.00000000E+00
  0.00000000E+00  0.00000000E+00  0.00000000E+00  0.00000000E+00  0.00000000E+00
  0.00000000E+00  0.00000000E+00  0.00000000E+00  0.00000000E+00  0.00000000E+00
  0.00000000E+00  0.00000000E+00  0.00000000E+00  0.00000000E+00  1.00000000E+00
  0.00000000E+00  0.00000000E+00  0.00000000E+00  0.00000000E+00  0.00000000E+00
  0.00000000E+00  0.00000000E+00  0.00000000E+00  0.00000000E+00  0.00000000E+00
  0.00000000E+00  0.00000000E+00  0.00000000E+00  0.00000000E+00  0.00000000E+00
  0.00000000E+00  1.00000000E+00  0.00000000E+00  0.00000000E+00  1.08630868E-15
 -2.08859139E-14  0.00000000E+00  0.00000000E+00  0.00000000E+00  2.90804351E-14
  0.00000000E+00  0.00000000E+00  0.00000000E+00 -1.41654413E-14  0.00000000E+00
  0.00000000E+00  0.00000000E+00 -7.83887571E-01  9.29661376E-01 -1.45773805E-01
  0.00000000E+00  0.00000000E+00  0.00000000E+00 -2.89925407E-15  3.36219501E-14
  0.00000000E+00  0.00000000E+00  0.00000000E+00 -3.66209896E-14  0.00000000E+00
  0.00000000E+00  0.00000000E+00  2.07068020E-14  0.00000000E+00  0.00000000E+00
  0.00000000E+00 -6.20902791E-01 -3.68415154E-01  9.89317946E-01  0.00000000E+00
  0.00000000E+00  0.00000000E+00 -4.77891013E-01  2.26102974E-01  0.00000000E+00
  0.00000000E+00  0.00000000E+00  3.80495629E+00  0.00000000E+00  0.00000000E+00
  0.00000000E+00 -8.24812492E-01  0.00000000E+00  0.00000000E+00  0.00000000E+00
 -1.58795760E+00 -1.58795760E+00 -1.58795760E+00  0.00000000E+00  0.00000000E+00
  0.00000000E+00
Orthonormal basis                          R   N=         361
  4.59663719E-02  2.16427895E-01  0.00000000E+00  0.00000000E+00  0.00000000E+00
  2.61300377E-01  0.00000000E+00  0.00000000E+00  0.00000000E+00  2.02493944E-01
  0.00000000E+00  0.00000000E+00  0.00000000E+00  1.88153971E-01  1.88153971E-01
  1.88153971E-01  0.00000000E+00  0.00000000E+00  0.00000000E+00  9.50255755E-01
  1.80379177E-01  0.00000000E+00  0.00000000E+00  0.00000000E+00 -1.50269768E-02
  0.00000000E+00  0.00000000E+00  0.00000000E+00 -1.25524514E-01  0.00000000E+00
  0.00000000E+00  0.00000000E+00 -9.45579942E-02 -9.45579942E-02 -9.45579942E-02
  0.00000000E+00  0.00000000E+00  0.00000000E+00  2.91092879E-17  1.03810830E-16
  0.00000000E+00  0.00000000E+00  0.00000000E+00 -3.40718639E-16  0.00000000E+00
  0.00000000E+00  0.00000000E+00  1.34861170E-17  0.00000000E+00  0.00000000E+00
  0.00000000E+00  8.78439709E-01 -8.53052863E-01 -2.53868459E-02  0.00000000E+00
  0.00000000E+00  0.00000000E+00 -8.44869698E-16  1.67731823E-15  0.00000000E+00
  0.00000000E+00  0.00000000E+00  1.79108161E-15  0.00000000E+00  0.00000000E+00
  0.00000000E+00 -4.38036148E-15  0.00000000E+00  0.00000000E+00  0.00000000E+00
 -4.77853198E-01 -5.21824505E-01  9.99677702E-01  0.00000000E+00  0.00000000E+00
  0.00000000E+00  2.25073338E-01 -7.19335415E-01  0.00000000E+00  0.00000000E+00
  0.00000000E+00  1.12308346E-01  0.00000000E+00  0.00000000E+00  0.00000000E+00
  1.01615881E+00  0.00000000E+00  0.00000000E+00  0.00000000E+00 -1.59043103E-01
 -1.59043103E-01 -1.59043103E-01  0.00000000E+00  0.00000000E+00  0.00000000E+00
 -3.73766816E-01  1.37221686E+00  0.00000000E+00  0.00000000E+00  0.00000000E+00
 -1.32238983E-01  0.00000000E+00  0.00000000E+00  0.00000000E+00  7.40113812E-01
  0.00000000E+00  0.00000000E+00  0.00000000E+00 -6.99993679E-01 -6.99993679E-01
 -6.99993679E-01  0.00000000E+00  0.00000000E+00  0.00000000E+00 -4.33328958E-01
 -8.86120876E-01  0.00000000E+00  0.00000000E+00  0.00000000E+00  5.45532674E+00
  0.00000000E+00  0.00000000E+00  0.00000000E+00 -1.83484263E+00  0.00000000E+00
  0.00000000E+00  0.00000000E+00 -1.49210169E+00 -1.49210169E+00 -1.49210169E+00
  0.00000000E+00  0.00000000E+00  0.00000000E+00  0.00000000E+00  0.00000000E+00
  0.00000000E+00  0.00000000E+00  0.00000000E+00  0.00000000E+00  0.00000000E+00
  0.00000000E+00  0.00000000E+00  0.00000000E+00  0.00000000E+00  0.00000000E+00
  0.00000000E+00  0.00000000E+00  0.00000000E+00  0.00000000E+00  1.00000000E+00
  0.00000000E+00  0.00000000E+00  0.00000000E+00  0.00000000E+00  0.00000000E+00
  0.00000000E+00  0.00000000E+00  0.00000000E+00  0.00000000E+00  0.00000000E+00
  0.00000000E+00  0.00000000E+00  0.00000000E+00  0.00000000E+00  0.00000000E+00
  0.00000000E+00  0.00000000E+00  0.00000000E+00  0.00000000E+00  1.00000000E+00
  0.00000000E+00  0.00000000E+00  0.00000000E+00  0.00000000E+00  0.00000000E+00
  0.00000000E+00  0.00000000E+00  0.00000000E+00  0.00000000E+00  0.00000000E+00
  0.00000000E+00  0.00000000E+00  0.00000000E+00  0.00000000E+00  0.00000000E+00
  0.00000000E+00  0.00000000E+00  0.00000000E+00  0.00000000E+00  1.00000000E+00
  0.00000000E+00  0.00000000E+00  0.00000000E+00  0.00000000E+00  3.38496871E-01
  0.00000000E+00  0.00000000E+00  0.00000000E+00  4.84301624E-01  0.00000000E+00
  0.00000000E+00  0.00000000E+00  4.13451438E-01  0.00000000E+00  0.00000000E+00
  0.00000000E+00  0.00000000E+00  0.00000000E+00  0.00000000E+00  0.00000000E+00
  0.00000000E+00  0.00000000E+00  0.00000000E+00  8.79966812E-01  0.00000000E+00
  0.00000000E+00  0.00000000E+00 -6.66489147E-02  0.00000000E+00  0.00000000E+00
  0.00000000E+00 -6.42367665E-01  0.00000000E+00  0.00000000E+00  0.00000000E+00
  0.00000000E+00  0.00000000E+00  0.00000000E+00  0.00000000E+00  0.00000000E+00
  0.00000000E+00  0.00000000E+00 -7.38595040E-01  0.00000000E+00  0.00000000E+00
  0.00000000E+00  1.51411613E+00  0.00000000E+00  0.00000000E+00  0.00000000E+00
 -1.16888405E+00  0.00000000E+00  0.00000000E+00  0.00000000E+00  0.00000000E+00
  0.00000000E+00  0.00000000E+00  0.00000000E+00  0.00000000E+00  0.00000000E+00
  3.38496871E-01  0.00000000E+00  0.00000000E+00  0.00000000E+00  4.84301624E-01
  0.00000000E+00  0.00000000E+00  0.00000000E+00  4.13451438E-01  0.00000000E+00
  0.00000000E+00  0.00000000E+00  0.00000000E+00  0.00000000E+00  0.00000000E+00
  0.00000000E+00  0.00000000E+00  0.00000000E+00  0.00000000E+00  8.79966812E-01
  0.00000000E+00  0.00000000E+00  0.00000000E+00 -6.66489147E-02  0.00000000E+00
  0.00000000E+00  0.00000000E+00 -6.42367665E-01  0.00000000E+00  0.00000000E+00
  0.00000000E+00  0.00000000E+00  0.00000000E+00  0.00000000E+00  0.00000000E+00
  0.00000000E+00  0.00000000E+00  0.00000000E+00 -7.38595040E-01  0.00000000E+00
  0.00000000E+00  0.00000000E+00  1.51411613E+00  0.00000000E+00  0.00000000E+00
  0.00000000E+00 -1.16888405E+00  0.00000000E+00  0.00000000E+00  0.00000000E+00
  0.00000000E+00  0.00000000E+00  0.00000000E+00  0.00000000E+00  0.00000000E+00
  0.00000000E+00  3.38496871E-01  0.00000000E+00  0.00000000E+00  0.00000000E+00
  4.84301624E-01  0.00000000E+00  0.00000000E+00  0.00000000E+00  4.13451438E-01
  0.00000000E+00  0.00000000E+00  0.00000000E+00  0.00000000E+00  0.00000000E+00
  0.00000000E+00  0.00000000E+00  0.00000000E+00  0.00000000E+00  0.00000000E+00
  8.79966812E-01  0.00000000E+00  0.00000000E+00  0.00000000E+00 -6.66489147E-02
  0.00000000E+00  0.00000000E+00  0.00000000E+00 -6.42367665E-01  0.00000000E+00
  0.00000000E+00  0.00000000E+00  0.00000000E+00  0.00000000E+00  0.00000000E+00
  0.00000000E+00  0.00000000E+00  0.00000000E+00  0.00000000E+00 -7.38595040E-01
  0.00000000E+00  0.00000000E+00  0.00000000E+00  1.51411613E+00  0.00000000E+00
  0.00000000E+00  0.00000000E+00 -1.16888405E+00  0.00000000E+00  0.00000000E+00
  0.00000000E+00  0.00000000E+00  0.00000000E+00  0.00000000E+00  0.00000000E+00
  0.00000000E+00
Total SCF Density                          R   N=         190
  2.07761407E+00 -1.89258369E-01  5.47739668E-01  0.00000000E+00  0.00000000E+00
  6.54629359E-01  0.00000000E+00  0.00000000E+00  3.58178750E-18  6.54629359E-01
  0.00000000E+00  0.00000000E+00 -1.81909765E-20  6.45366045E-19  6.54629359E-01
 -2.22431902E-01  5.56413774E-01  0.00000000E+00  0.00000000E+00  0.00000000E+00
  5.65677788E-01  0.00000000E+00  0.00000000E+00  3.20629473E-01  1.75431582E-18
 -8.90971835E-21  0.00000000E+00  1.57040404E-01  0.00000000E+00  0.00000000E+00
  1.75431582E-18  3.20629473E-01  3.16092415E-19  0.00000000E+00  8.59242483E-19
  1.57040404E-01  0.00000000E+00  0.00000000E+00 -8.90971835E-21  3.16092415E-19
  3.20629473E-01  0.00000000E+00 -4.36387135E-21  1.54818208E-19  1.57040404E-01
 -3.17974377E-02  6.18979613E-02  0.00000000E+00  0.00000000E+00  0.00000000E+00
  6.30343043E-02  0.00000000E+00  0.00000000E+00  0.00000000E+00  7.04870722E-03
  0.00000000E+00  0.00000000E+00  4.95401409E-01  2.71057591E-18 -1.37663172E-20
  0.00000000E+00  2.42641566E-01  1.32760701E-18 -6.74257420E-21  0.00000000E+00
  3.74903069E-01  0.00000000E+00  0.00000000E+00  2.71057591E-18  4.95401409E-01
  4.88391245E-19  0.00000000E+00  1.32760701E-18  2.42641566E-01  2.39208073E-19
  0.00000000E+00  2.05127238E-18  3.74903069E-01  0.00000000E+00  0.00000000E+00
 -1.37663172E-20  4.88391245E-19  4.95401409E-01  0.00000000E+00 -6.74257420E-21
  2.39208073E-19  2.42641566E-01  0.00000000E+00 -1.04178843E-20  3.69598014E-19
  3.74903069E-01 -1.53757029E-02 -3.72603294E-03  0.00000000E+00  0.00000000E+00
  0.00000000E+00 -3.53514908E-03  0.00000000E+00  0.00000000E+00  0.00000000E+00
 -3.34859149E-04  0.00000000E+00  0.00000000E+00  0.00000000E+00  1.63333639E-04
 -1.53757029E-02 -3.72603294E-03  0.00000000E+00  0.00000000E+00  0.00000000E+00
 -3.53514908E-03  0.00000000E+00  0.00000000E+00  0.00000000E+00 -3.34859149E-04
  0.00000000E+00  0.00000000E+00  0.00000000E+00  1.63333639E-04  1.63333639E-04
 -1.53757029E-02 -3.72603294E-03  0.00000000E+00  0.00000000E+00  0.00000000E+00
 -3.53514908E-03  0.00000000E+00  0.00000000E+00  0.00000000E+00 -3.34859149E-04
  0.00000000E+00  0.00000000E+00  0.00000000E+00  1.63333639E-04  1.63333639E-04
  1.63333639E-04 -9.71423677E-20 -2.35407554E-20  0.00000000E+00  0.00000000E+00
  0.00000000E+00 -2.23347676E-20  0.00000000E+00  0.00000000E+00  0.00000000E+00
 -2.11561129E-21  0.00000000E+00  0.00000000E+00  0.00000000E+00  1.03192787E-21
  1.03192787E-21  1.03192787E-21  3.35698810E-36  4.93361075E-22  1.19557436E-22
  0.00000000E+00  0.00000000E+00  0.00000000E+00  1.13432534E-22  0.00000000E+00
  0.00000000E+00  0.00000000E+00  1.07446450E-23  0.00000000E+00  0.00000000E+00
  0.00000000E+00 -5.24089598E-24 -5.24089598E-24 -5.24089598E-24  5.41753115E-39
  1.20741033E-36 -1.75031003E-20 -4.24157052E-21  0.00000000E+00  0.00000000E+00
  0.00000000E+00 -4.02427577E-21  0.00000000E+00  0.00000000E+00  0.00000000E+00
 -3.81190590E-22  0.00000000E+00  0.00000000E+00  0.00000000E+00  1.85932641E-22
  1.85932641E-22  1.85932641E-22  3.15756855E-38 -2.66545613E-37  1.31925714E-36
Mulliken Charges                           R   N=           1
 -2.00000000E+00
ONIOM Charges                              I   N=          16
          -2           0           0           0           0           0
           0           0           0           0           0           0
           0           0           0           0
ONIOM Multiplicities                       I   N=          16
           1           0           0           0           0           0
           0           0           0           0           0           0
           0           0           0           0
Atom Layers                                I   N=           1
           1
Atom Modifiers                             I   N=           1
           0
Int Atom Modified Types                    I   N=           1
           0
Force Field                                I                0
Atom Modified Types                        C   N=           1

Link Atoms                                 I   N=           1
           0
Atom Modified MM Charges                   R   N=           1
  0.00000000E+00
Link Distances                             R   N=           4
  0.00000000E+00  0.00000000E+00  0.00000000E+00  0.00000000E+00
Cartesian Gradient                         R   N=           3
  0.00000000E+00  0.00000000E+00  0.00000000E+00
Nonadiabatic coupling                      R   N=           3
  0.00000000E+00  0.00000000E+00  0.00000000E+00
Dipole Moment                              R   N=           3
  0.00000000E+00  0.00000000E+00  0.00000000E+00
Quadrupole Moment                          R   N=           6
  0.00000000E+00 -1.77635684E-15 -3.55271368E-15 -2.19704460E-17  1.11582238E-19
 -3.95863234E-18
QEq coupling tensors                       R   N=           6
  0.00000000E+00  0.00000000E+00  0.00000000E+00  0.00000000E+00  0.00000000E+00
  0.00000000E+00
ClPar MaxAn                                I              200
ClPar NIntPar                              I                4
ClPar NRealPar                             I               16
ClPar NBits                                I               30
ClPar LenBitVec                            I                1
ClPar Read BitMap                          I   N=         200
           0           0           0           0           0           0
           0           0           0           0           0           0
           0           0           0           0           0           0
           0           0           0           0           0           0
           0           0           0           0           0           0
           0           0           0           0           0           0
           0           0           0           0           0           0
           0           0           0           0           0           0
           0           0           0           0           0           0
           0           0           0           0           0           0
           0           0           0           0           0           0
           0           0           0           0           0           0
           0           0           0           0           0           0
           0           0           0           0           0           0
           0           0           0           0           0           0
           0           0           0           0           0           0
           0           0           0           0           0           0
           0           0           0           0           0           0
           0           0           0           0           0           0
           0           0           0           0           0           0
           0           0           0           0           0           0
           0           0           0           0           0           0
           0           0           0           0           0           0
           0           0           0           0           0           0
           0           0           0           0           0           0
           0           0           0           0           0           0
           0           0           0           0           0           0
           0           0           0           0           0           0
           0           0           0           0           0           0
           0           0           0           0           0           0
           0           0           0           0           0           0
           0           0           0           0           0           0
           0           0           0           0           0           0
           0           0
ClPar Default BitMap                       I   N=         200
        2016        2016        2016        2016        2016        2016
        2016        2016        2016        2016        2016        2016
        2016        2016        2016        2016        2016        2016
        2016        2016        2016        2016        2016        2016
        2016        2016        2016        2016        2016        2016
        2016        2016        2016        2016        2016        2016
        2016        2016        2016        2016        2016        2016
        2016        2016        2016        2016        2016        2016
        2016        2016        2016        2016        2016        2016
        2016        2016        2016        2016        2016        2016
        2016        2016        2016        2016        2016        2016
        2016        2016        2016        2016        2016        2016
        2016        2016        2016        2016        2016        2016
        2016        2016        2016        2016        2016        2016
        2016        2016         480         480         480         480
         480         480         480         480         480         480