fubar
SP        UPBEPBE                                                     6-31+G(d,p)
Number of atoms                            I                1
Info1-9                                    I   N=           9
          11          10           0           0           0         110
           1          18         902
Full Title                                 C   N=           1
fubar
Route                                      C   N=           3
#PBEPBE/6-31+g** scf=tight
Charge                                     I                0
Multiplicity                               I                3
Number of electrons                        I                8
Number of alpha electrons                  I                5
Number of beta electrons                   I                3
Number of basis functions                  I               19
Number of independent functions            I               19
Number of point charges in /Mol/           I                0
Number of translation vectors              I                0
Atomic numbers                             I   N=           1
           8
Nuclear charges                            R   N=           1
  8.00000000E+00
Current cartesian coordinates              R   N=           3
  0.00000000E+00  0.00000000E+00  0.00000000E+00
Number of symbols in /Mol/                 I                0
Int Atom Types                             I   N=           1
           0
Force Field                                I                0
Atom Types                                 C   N=           1

MM charges                                 R   N=           1
  0.00000000E+00
Integer atomic weights                     I   N=           1
          16
Real atomic weights                        R   N=           1
  1.59949146E+01
Atom fragment info                         I   N=           1
           0
Atom residue num                           I   N=           1
           0
Nuclear spins                              I   N=           1
           0
Nuclear ZEff                               R   N=           1
 -5.60000000E+00
Nuclear ZNuc                               R   N=           1
  8.00000000E+00
Nuclear QMom                               R   N=           1
  0.00000000E+00
Nuclear GFac                               R   N=           1
  0.00000000E+00
MicOpt                                     I   N=           1
          -1
Number of residues                         I                0
Number of secondary structures             I                0
SymInf integers                            I   N=          26
           1           8           1           1           1           1
          -1          -1          -1           1          -1          -1
          -1           1          -1          -1          -1          -1
           1           1           1          -1           1           1
           1          -1
RotTr to input orientation                 R   N=          12
  0.00000000E+00  0.00000000E+00 -1.00000000E+00  0.00000000E+00  1.00000000E+00
  0.00000000E+00  1.00000000E+00  0.00000000E+00  0.00000000E+00  0.00000000E+00
  0.00000000E+00  0.00000000E+00
Number of contracted shells                I                5
Number of primitive shells                 I               12
Pure/Cartesian d shells                    I                1
Pure/Cartesian f shells                    I                0
Highest angular momentum                   I                2
Largest degree of contraction              I                6
Shell types                                I   N=           5
           0          -1          -1          -1           2
Number of primitives per shell             I   N=           5
           6           3           1           1           1
Shell to atom map                          I   N=           5
           1           1           1           1           1
Primitive exponents                        R   N=          12
  5.48467166E+03  8.25234946E+02  1.88046958E+02  5.29645000E+01  1.68975704E+01
  5.79963534E+00  1.55396162E+01  3.59993359E+00  1.01376175E+00  2.70005823E-01
  8.45000000E-02  8.00000000E-01
Contraction coefficients                   R   N=          12
  1.83107443E-03  1.39501722E-02  6.84450781E-02  2.32714336E-01  4.70192898E-01
  3.58520853E-01 -1.10777550E-01 -1.48026263E-01  1.13076702E+00  1.00000000E+00
  1.00000000E+00  1.00000000E+00
P(S=P) Contraction coefficients            R   N=          12
  0.00000000E+00  0.00000000E+00  0.00000000E+00  0.00000000E+00  0.00000000E+00
  0.00000000E+00  7.08742682E-02  3.39752839E-01  7.27158577E-01  1.00000000E+00
  1.00000000E+00  0.00000000E+00
Coordinates of each shell                  R   N=          15
  0.00000000E+00  0.00000000E+00  0.00000000E+00  0.00000000E+00  0.00000000E+00
  0.00000000E+00  0.00000000E+00  0.00000000E+00  0.00000000E+00  0.00000000E+00
  0.00000000E+00  0.00000000E+00  0.00000000E+00  0.00000000E+00  0.00000000E+00
Num ILSW                                   I              100
ILSW                                       I   N=         100
           1           1           0           0           2           0
           0           0           0           0        1009          -1
           5           0           0           0           0           0
           0           0           0           0           0           0
           1           0           0           0           0           0
           0           0      100000           0          -1           0
           0           0           0           0           0           0
           0           0           0           1           0           0
           0 -2000000000           1           0           0           0
           0           1           4          52           0           0
           0           0           0           0           0           0
           0           0           0           1           0           1
           0           0           0           0           0           0
           0           0           0           0           0           0
           0           0           0           0           0           0
           0           0           0           0           0           0
           0           0           0           0
Num RLSW                                   I               52
RLSW                                       R   N=          52
  1.00000000E+00  1.00000000E+00  1.00000000E+00  1.00000000E+00  0.00000000E+00
  0.00000000E+00  0.00000000E+00  1.00000000E+00  0.00000000E+00  0.00000000E+00
  0.00000000E+00  0.00000000E+00  1.00000000E+00  0.00000000E+00  0.00000000E+00
  0.00000000E+00  0.00000000E+00  1.00000000E+00  0.00000000E+00  0.00000000E+00
  0.00000000E+00  0.00000000E+00  1.00000000E+00  0.00000000E+00  0.00000000E+00
  0.00000000E+00  0.00000000E+00  1.00000000E+00  0.00000000E+00  0.00000000E+00
  0.00000000E+00  0.00000000E+00  1.00000000E+00  0.00000000E+00  0.00000000E+00
  0.00000000E+00  0.00000000E+00  0.00000000E+00  1.00000000E+00  1.00000000E+00
  0.00000000E+00  1.00000000E+00  0.00000000E+00  0.00000000E+00  0.00000000E+00
  0.00000000E+00  0.00000000E+00  0.00000000E+00  0.00000000E+00  0.00000000E+00
  0.00000000E+00  0.00000000E+00
MxBond                                     I                1
NBond                                      I   N=           1
           0
IBond                                      I   N=           1
           0
RBond                                      R   N=           1
  0.00000000E+00
Virial Ratio                               R      2.008751806193052E+00
SCF Energy                                 R     -7.498171701515433E+01
Total Energy                               R     -7.498171701515433E+01
S**2                                       R      2.002896397006162E+00
S**2 after annihilation                    R      2.000002965562438E+00
RMS Density                                R      5.343927844046684E-09
Job Status                                 I                1
Nuclear derivative order                   I                0
External E-field                           R   N=          35
  0.00000000E+00  0.00000000E+00  0.00000000E+00  0.00000000E+00  0.00000000E+00
  0.00000000E+00  0.00000000E+00  0.00000000E+00  0.00000000E+00  0.00000000E+00
  0.00000000E+00  0.00000000E+00  0.00000000E+00  0.00000000E+00  0.00000000E+00
  0.00000000E+00  0.00000000E+00  0.00000000E+00  0.00000000E+00  0.00000000E+00
  0.00000000E+00  0.00000000E+00  0.00000000E+00  0.00000000E+00  0.00000000E+00
  0.00000000E+00  0.00000000E+00  0.00000000E+00  0.00000000E+00  0.00000000E+00
  0.00000000E+00  0.00000000E+00  0.00000000E+00  0.00000000E+00  0.00000000E+00
IOpCl                                      I                1
IROHF                                      I                0
Alpha Orbital Energies                     R   N=          19
 -1.89342882E+01 -9.26852907E-01 -4.00689236E-01 -4.00689236E-01 -3.24247680E-01
  6.03859693E-02  1.25927810E-01  1.25927810E-01  1.38224212E-01  9.78694034E-01
  9.78694034E-01  1.02368610E+00  1.08740697E+00  1.58763573E+00  1.58763573E+00
  1.63675797E+00  1.63675797E+00  1.65434936E+00  3.45775428E+00
Beta Orbital Energies                      R   N=          19
 -1.88876470E+01 -7.95103842E-01 -2.77197671E-01 -2.40679459E-01 -2.40679459E-01
  8.62665931E-02  1.46046259E-01  1.62517323E-01  1.62517323E-01  1.05255712E+00
  1.08257356E+00  1.08257356E+00  1.15007062E+00  1.70992333E+00  1.70992333E+00
  1.72190280E+00  1.73647028E+00  1.73647029E+00  3.55758858E+00
Alpha MO coefficients                      R   N=         361
  9.92160037E-01  2.75185531E-02  0.00000000E+00  0.00000000E+00  0.00000000E+00
  1.36607643E-02  0.00000000E+00  0.00000000E+00  0.00000000E+00 -2.56847162E-03
  0.00000000E+00  0.00000000E+00  0.00000000E+00 -9.16990568E-03 -9.16990568E-03
 -9.44459766E-03  0.00000000E+00  0.00000000E+00  0.00000000E+00 -2.37578274E-01
  5.70008659E-01  0.00000000E+00  0.00000000E+00  0.00000000E+00  5.21208391E-01
  0.00000000E+00  0.00000000E+00  0.00000000E+00 -8.54159340E-03  0.00000000E+00
  0.00000000E+00  0.00000000E+00  1.18380684E-02  1.18380684E-02 -1.75135398E-02
  0.00000000E+00  0.00000000E+00  0.00000000E+00  0.00000000E+00  0.00000000E+00
  7.17431729E-01  0.00000000E+00  0.00000000E+00  0.00000000E+00  3.95572475E-01
  0.00000000E+00  0.00000000E+00  0.00000000E+00  5.35205232E-02  0.00000000E+00
  0.00000000E+00  0.00000000E+00  0.00000000E+00  0.00000000E+00  0.00000000E+00
  0.00000000E+00  0.00000000E+00  0.00000000E+00  0.00000000E+00  0.00000000E+00
  7.17431729E-01  0.00000000E+00  0.00000000E+00  0.00000000E+00  3.95572475E-01
  0.00000000E+00  0.00000000E+00  0.00000000E+00  5.35205232E-02  0.00000000E+00
  0.00000000E+00  0.00000000E+00  0.00000000E+00  0.00000000E+00  0.00000000E+00
  0.00000000E+00  0.00000000E+00  0.00000000E+00  0.00000000E+00  0.00000000E+00
  6.93836510E-01  0.00000000E+00  0.00000000E+00  0.00000000E+00  4.04396276E-01
  0.00000000E+00  0.00000000E+00  0.00000000E+00  8.55112196E-02  0.00000000E+00
  0.00000000E+00  0.00000000E+00  0.00000000E+00  0.00000000E+00  0.00000000E+00
  9.43473048E-02 -1.21403079E-01  0.00000000E+00  0.00000000E+00  0.00000000E+00
 -1.08276657E+00  0.00000000E+00  0.00000000E+00  0.00000000E+00  1.56843440E+00
  0.00000000E+00  0.00000000E+00  0.00000000E+00  6.29598518E-02  6.29598518E-02
  6.74451721E-02  0.00000000E+00  0.00000000E+00  0.00000000E+00  0.00000000E+00
  0.00000000E+00  0.00000000E+00 -2.53893951E-01  0.00000000E+00  0.00000000E+00
  0.00000000E+00 -3.54907702E-01  0.00000000E+00  0.00000000E+00  0.00000000E+00
  1.17384695E+00  0.00000000E+00  0.00000000E+00  0.00000000E+00  0.00000000E+00
  0.00000000E+00  0.00000000E+00  0.00000000E+00  0.00000000E+00  0.00000000E+00
 -2.53893951E-01  0.00000000E+00  0.00000000E+00  0.00000000E+00 -3.54907702E-01
  0.00000000E+00  0.00000000E+00  0.00000000E+00  1.17384695E+00  0.00000000E+00
  0.00000000E+00  0.00000000E+00  0.00000000E+00  0.00000000E+00  0.00000000E+00
  0.00000000E+00  0.00000000E+00  0.00000000E+00  0.00000000E+00  0.00000000E+00
  0.00000000E+00 -2.64410404E-01  0.00000000E+00  0.00000000E+00  0.00000000E+00
 -3.94216275E-01  0.00000000E+00  0.00000000E+00  0.00000000E+00  1.18358574E+00
  0.00000000E+00  0.00000000E+00  0.00000000E+00  0.00000000E+00  0.00000000E+00
  0.00000000E+00  0.00000000E+00  0.00000000E+00  0.00000000E+00 -9.24810213E-01
  0.00000000E+00  0.00000000E+00  0.00000000E+00  1.49970022E+00  0.00000000E+00
  0.00000000E+00  0.00000000E+00 -7.54378641E-01  0.00000000E+00  0.00000000E+00
  0.00000000E+00  0.00000000E+00  0.00000000E+00  0.00000000E+00  0.00000000E+00
  0.00000000E+00  0.00000000E+00 -9.24810213E-01  0.00000000E+00  0.00000000E+00
  0.00000000E+00  1.49970022E+00  0.00000000E+00  0.00000000E+00  0.00000000E+00
 -7.54378641E-01  0.00000000E+00  0.00000000E+00  0.00000000E+00  0.00000000E+00
  0.00000000E+00  0.00000000E+00  0.00000000E+00  0.00000000E+00  0.00000000E+00
  0.00000000E+00  0.00000000E+00  0.00000000E+00 -9.39745917E-01  0.00000000E+00
  0.00000000E+00  0.00000000E+00  1.48747941E+00  0.00000000E+00  0.00000000E+00
  0.00000000E+00 -7.35989717E-01  0.00000000E+00  0.00000000E+00  0.00000000E+00
  0.00000000E+00  0.00000000E+00  0.00000000E+00 -5.13510148E-02 -1.70253412E+00
  0.00000000E+00  0.00000000E+00  0.00000000E+00  3.58624477E+00  0.00000000E+00
  0.00000000E+00  0.00000000E+00 -1.33220138E+00  0.00000000E+00  0.00000000E+00
  0.00000000E+00 -4.49196257E-01 -4.49196257E-01 -4.49405967E-01  0.00000000E+00
  0.00000000E+00  0.00000000E+00  0.00000000E+00  0.00000000E+00  0.00000000E+00
  0.00000000E+00  0.00000000E+00  0.00000000E+00  0.00000000E+00  0.00000000E+00
  0.00000000E+00  0.00000000E+00  0.00000000E+00  0.00000000E+00  0.00000000E+00
  0.00000000E+00  0.00000000E+00  0.00000000E+00  1.00000000E+00  0.00000000E+00
  0.00000000E+00 -1.15290983E-15 -1.10782764E-14  0.00000000E+00  0.00000000E+00
  0.00000000E+00  3.14119105E-14  0.00000000E+00  0.00000000E+00  0.00000000E+00
 -1.09516390E-14  0.00000000E+00  0.00000000E+00  0.00000000E+00  8.66025404E-01
 -8.66025404E-01  9.53078640E-15  0.00000000E+00  0.00000000E+00  0.00000000E+00
  0.00000000E+00  0.00000000E+00  0.00000000E+00  0.00000000E+00  0.00000000E+00
  0.00000000E+00  0.00000000E+00  0.00000000E+00  0.00000000E+00  0.00000000E+00
  0.00000000E+00  0.00000000E+00  0.00000000E+00  0.00000000E+00  0.00000000E+00
  0.00000000E+00  0.00000000E+00  0.00000000E+00  1.00000000E+00  0.00000000E+00
  0.00000000E+00  0.00000000E+00  0.00000000E+00  0.00000000E+00  0.00000000E+00
  0.00000000E+00  0.00000000E+00  0.00000000E+00  0.00000000E+00  0.00000000E+00
  0.00000000E+00  0.00000000E+00  0.00000000E+00  0.00000000E+00  0.00000000E+00
  0.00000000E+00  1.00000000E+00  0.00000000E+00 -9.41330516E-03  1.28437328E-02
  0.00000000E+00  0.00000000E+00  0.00000000E+00  5.21614412E-02  0.00000000E+00
  0.00000000E+00  0.00000000E+00 -1.35422049E-02  0.00000000E+00  0.00000000E+00
  0.00000000E+00 -5.15661189E-01 -5.15661189E-01  9.83974442E-01  0.00000000E+00
  0.00000000E+00  0.00000000E+00 -4.80396301E-01  1.60677325E-01  0.00000000E+00
  0.00000000E+00  0.00000000E+00  3.94348744E+00  0.00000000E+00  0.00000000E+00
  0.00000000E+00 -8.76780997E-01  0.00000000E+00  0.00000000E+00  0.00000000E+00
 -1.60128840E+00 -1.60128840E+00 -1.61582185E+00  0.00000000E+00  0.00000000E+00
  0.00000000E+00
Beta MO coefficients                       R   N=         361
  9.92967855E-01  2.56434288E-02  0.00000000E+00  0.00000000E+00  0.00000000E+00
  1.04051677E-02  0.00000000E+00  0.00000000E+00  0.00000000E+00 -1.80310669E-03
  0.00000000E+00  0.00000000E+00  0.00000000E+00 -7.78654921E-03 -7.78654921E-03
 -7.60406271E-03  0.00000000E+00  0.00000000E+00  0.00000000E+00 -2.33257950E-01
  5.34405446E-01  0.00000000E+00  0.00000000E+00  0.00000000E+00  5.46349917E-01
  0.00000000E+00  0.00000000E+00  0.00000000E+00  1.06382273E-02  0.00000000E+00
  0.00000000E+00  0.00000000E+00 -3.24722395E-03 -3.24722395E-03  8.62150288E-03
  0.00000000E+00  0.00000000E+00  0.00000000E+00  0.00000000E+00  0.00000000E+00
  0.00000000E+00  0.00000000E+00  6.73445659E-01  0.00000000E+00  0.00000000E+00
  0.00000000E+00  4.10992950E-01  0.00000000E+00  0.00000000E+00  0.00000000E+00
  1.12321916E-01  0.00000000E+00  0.00000000E+00  0.00000000E+00  0.00000000E+00
  0.00000000E+00  0.00000000E+00  0.00000000E+00  0.00000000E+00  6.53658819E-01
  0.00000000E+00  0.00000000E+00  0.00000000E+00  4.21061451E-01  0.00000000E+00
  0.00000000E+00  0.00000000E+00  1.30498405E-01  0.00000000E+00  0.00000000E+00
  0.00000000E+00  0.00000000E+00  0.00000000E+00  0.00000000E+00  0.00000000E+00
  0.00000000E+00  0.00000000E+00  0.00000000E+00  0.00000000E+00  6.53658819E-01
  0.00000000E+00  0.00000000E+00  0.00000000E+00  4.21061451E-01  0.00000000E+00
  0.00000000E+00  0.00000000E+00  1.30498405E-01  0.00000000E+00  0.00000000E+00
  0.00000000E+00  0.00000000E+00  0.00000000E+00  0.00000000E+00  0.00000000E+00
  9.94658817E-02 -1.02370476E-01  0.00000000E+00  0.00000000E+00  0.00000000E+00
 -1.15240667E+00  0.00000000E+00  0.00000000E+00  0.00000000E+00  1.59086850E+00
  0.00000000E+00  0.00000000E+00  0.00000000E+00  6.86162585E-02  6.86162585E-02
  6.60516913E-02  0.00000000E+00  0.00000000E+00  0.00000000E+00  0.00000000E+00
  0.00000000E+00  0.00000000E+00  0.00000000E+00 -2.75061993E-01  0.00000000E+00
  0.00000000E+00  0.00000000E+00 -4.22675520E-01  0.00000000E+00  0.00000000E+00
  0.00000000E+00  1.18845449E+00  0.00000000E+00  0.00000000E+00  0.00000000E+00
  0.00000000E+00  0.00000000E+00  0.00000000E+00  0.00000000E+00  0.00000000E+00
  0.00000000E+00 -2.84314738E-01  0.00000000E+00  0.00000000E+00  0.00000000E+00
 -4.42405015E-01  0.00000000E+00  0.00000000E+00  0.00000000E+00  1.19043049E+00
  0.00000000E+00  0.00000000E+00  0.00000000E+00  0.00000000E+00  0.00000000E+00
  0.00000000E+00  0.00000000E+00  0.00000000E+00  0.00000000E+00 -2.84314738E-01
  0.00000000E+00  0.00000000E+00  0.00000000E+00 -4.42405015E-01  0.00000000E+00
  0.00000000E+00  0.00000000E+00  1.19043049E+00  0.00000000E+00  0.00000000E+00
  0.00000000E+00  0.00000000E+00  0.00000000E+00  0.00000000E+00  0.00000000E+00
  0.00000000E+00  0.00000000E+00  0.00000000E+00  0.00000000E+00  0.00000000E+00
 -9.51449525E-01  0.00000000E+00  0.00000000E+00  0.00000000E+00  1.47782543E+00
  0.00000000E+00  0.00000000E+00  0.00000000E+00 -7.24450104E-01  0.00000000E+00
  0.00000000E+00  0.00000000E+00  0.00000000E+00  0.00000000E+00  0.00000000E+00
  0.00000000E+00  0.00000000E+00  0.00000000E+00 -9.62465392E-01  0.00000000E+00
  0.00000000E+00  0.00000000E+00  1.46919123E+00  0.00000000E+00  0.00000000E+00
  0.00000000E+00 -7.18132059E-01  0.00000000E+00  0.00000000E+00  0.00000000E+00
  0.00000000E+00  0.00000000E+00  0.00000000E+00  0.00000000E+00  0.00000000E+00
  0.00000000E+00 -9.62465392E-01  0.00000000E+00  0.00000000E+00  0.00000000E+00
  1.46919123E+00  0.00000000E+00  0.00000000E+00  0.00000000E+00 -7.18132059E-01
  0.00000000E+00  0.00000000E+00  0.00000000E+00  0.00000000E+00  0.00000000E+00
  0.00000000E+00  0.00000000E+00  0.00000000E+00 -5.33224688E-02 -1.71228203E+00
  0.00000000E+00  0.00000000E+00  0.00000000E+00  3.61737653E+00  0.00000000E+00
  0.00000000E+00  0.00000000E+00 -1.31575589E+00  0.00000000E+00  0.00000000E+00
  0.00000000E+00 -4.72126435E-01 -4.72126435E-01 -4.76720098E-01  0.00000000E+00
  0.00000000E+00  0.00000000E+00  0.00000000E+00  0.00000000E+00  0.00000000E+00
  0.00000000E+00  0.00000000E+00  0.00000000E+00  0.00000000E+00  0.00000000E+00
  0.00000000E+00  0.00000000E+00  0.00000000E+00  0.00000000E+00  0.00000000E+00
  0.00000000E+00  0.00000000E+00  0.00000000E+00  0.00000000E+00  1.00000000E+00
  0.00000000E+00  0.00000000E+00  0.00000000E+00  0.00000000E+00  0.00000000E+00
  0.00000000E+00  0.00000000E+00  0.00000000E+00  0.00000000E+00  0.00000000E+00
  0.00000000E+00  0.00000000E+00  0.00000000E+00  0.00000000E+00  0.00000000E+00
  0.00000000E+00  0.00000000E+00  0.00000000E+00  0.00000000E+00  1.00000000E+00
  2.31950187E-03 -9.88415453E-03  0.00000000E+00  0.00000000E+00  0.00000000E+00
  1.42919209E-05  0.00000000E+00  0.00000000E+00  0.00000000E+00 -3.38225498E-04
  0.00000000E+00  0.00000000E+00  0.00000000E+00 -4.99360746E-01 -4.99360746E-01
  1.00058193E+00  0.00000000E+00  0.00000000E+00  0.00000000E+00 -1.42841497E-15
 -8.71175837E-15  0.00000000E+00  0.00000000E+00  0.00000000E+00  2.89973891E-14
  0.00000000E+00  0.00000000E+00  0.00000000E+00 -9.41257518E-15  0.00000000E+00
  0.00000000E+00  0.00000000E+00  8.66025404E-01 -8.66025404E-01 -1.56417983E-13
  0.00000000E+00  0.00000000E+00  0.00000000E+00  0.00000000E+00  0.00000000E+00
  0.00000000E+00  0.00000000E+00  0.00000000E+00  0.00000000E+00  0.00000000E+00
  0.00000000E+00  0.00000000E+00  0.00000000E+00  0.00000000E+00  0.00000000E+00
  0.00000000E+00  0.00000000E+00  0.00000000E+00  0.00000000E+00  1.00000000E+00
  0.00000000E+00  0.00000000E+00 -4.79683200E-01  1.90463932E-01  0.00000000E+00
  0.00000000E+00  0.00000000E+00  3.89193182E+00  0.00000000E+00  0.00000000E+00
  0.00000000E+00 -8.61140040E-01  0.00000000E+00  0.00000000E+00  0.00000000E+00
 -1.59967264E+00 -1.59967264E+00 -1.59783454E+00  0.00000000E+00  0.00000000E+00
  0.00000000E+00
Orthonormal basis                          R   N=         361
  4.59663719E-02  2.16427895E-01  0.00000000E+00  0.00000000E+00  0.00000000E+00
  2.61300377E-01  0.00000000E+00  0.00000000E+00  0.00000000E+00  2.02493944E-01
  0.00000000E+00  0.00000000E+00  0.00000000E+00  1.88153971E-01  1.88153971E-01
  1.88153971E-01  0.00000000E+00  0.00000000E+00  0.00000000E+00  9.50255755E-01
  1.80379177E-01  0.00000000E+00  0.00000000E+00  0.00000000E+00 -1.50269768E-02
  0.00000000E+00  0.00000000E+00  0.00000000E+00 -1.25524514E-01  0.00000000E+00
  0.00000000E+00  0.00000000E+00 -9.45579942E-02 -9.45579942E-02 -9.45579942E-02
  0.00000000E+00  0.00000000E+00  0.00000000E+00  2.91092879E-17  1.03810830E-16
  0.00000000E+00  0.00000000E+00  0.00000000E+00 -3.40718639E-16  0.00000000E+00
  0.00000000E+00  0.00000000E+00  1.34861170E-17  0.00000000E+00  0.00000000E+00
  0.00000000E+00  8.78439709E-01 -8.53052863E-01 -2.53868459E-02  0.00000000E+00
  0.00000000E+00  0.00000000E+00 -8.44869698E-16  1.67731823E-15  0.00000000E+00
  0.00000000E+00  0.00000000E+00  1.79108161E-15  0.00000000E+00  0.00000000E+00
  0.00000000E+00 -4.38036148E-15  0.00000000E+00  0.00000000E+00  0.00000000E+00
 -4.77853198E-01 -5.21824505E-01  9.99677702E-01  0.00000000E+00  0.00000000E+00
  0.00000000E+00  2.25073338E-01 -7.19335415E-01  0.00000000E+00  0.00000000E+00
  0.00000000E+00  1.12308346E-01  0.00000000E+00  0.00000000E+00  0.00000000E+00
  1.01615881E+00  0.00000000E+00  0.00000000E+00  0.00000000E+00 -1.59043103E-01
 -1.59043103E-01 -1.59043103E-01  0.00000000E+00  0.00000000E+00  0.00000000E+00
 -3.73766816E-01  1.37221686E+00  0.00000000E+00  0.00000000E+00  0.00000000E+00
 -1.32238983E-01  0.00000000E+00  0.00000000E+00  0.00000000E+00  7.40113812E-01
  0.00000000E+00  0.00000000E+00  0.00000000E+00 -6.99993679E-01 -6.99993679E-01
 -6.99993679E-01  0.00000000E+00  0.00000000E+00  0.00000000E+00 -4.33328958E-01
 -8.86120876E-01  0.00000000E+00  0.00000000E+00  0.00000000E+00  5.45532674E+00
  0.00000000E+00  0.00000000E+00  0.00000000E+00 -1.83484263E+00  0.00000000E+00
  0.00000000E+00  0.00000000E+00 -1.49210169E+00 -1.49210169E+00 -1.49210169E+00
  0.00000000E+00  0.00000000E+00  0.00000000E+00  0.00000000E+00  0.00000000E+00
  0.00000000E+00  0.00000000E+00  0.00000000E+00  0.00000000E+00  0.00000000E+00
  0.00000000E+00  0.00000000E+00  0.00000000E+00  0.00000000E+00  0.00000000E+00
  0.00000000E+00  0.00000000E+00  0.00000000E+00  0.00000000E+00  1.00000000E+00
  0.00000000E+00  0.00000000E+00  0.00000000E+00  0.00000000E+00  0.00000000E+00
  0.00000000E+00  0.00000000E+00  0.00000000E+00  0.00000000E+00  0.00000000E+00
  0.00000000E+00  0.00000000E+00  0.00000000E+00  0.00000000E+00  0.00000000E+00
  0.00000000E+00  0.00000000E+00  0.00000000E+00  0.00000000E+00  1.00000000E+00
  0.00000000E+00  0.00000000E+00  0.00000000E+00  0.00000000E+00  0.00000000E+00
  0.00000000E+00  0.00000000E+00  0.00000000E+00  0.00000000E+00  0.00000000E+00
  0.00000000E+00  0.00000000E+00  0.00000000E+00  0.00000000E+00  0.00000000E+00
  0.00000000E+00  0.00000000E+00  0.00000000E+00  0.00000000E+00  1.00000000E+00
  0.00000000E+00  0.00000000E+00  0.00000000E+00  0.00000000E+00  3.38496871E-01
  0.00000000E+00  0.00000000E+00  0.00000000E+00  4.84301624E-01  0.00000000E+00
  0.00000000E+00  0.00000000E+00  4.13451438E-01  0.00000000E+00  0.00000000E+00
  0.00000000E+00  0.00000000E+00  0.00000000E+00  0.00000000E+00  0.00000000E+00
  0.00000000E+00  0.00000000E+00  0.00000000E+00  8.79966812E-01  0.00000000E+00
  0.00000000E+00  0.00000000E+00 -6.66489147E-02  0.00000000E+00  0.00000000E+00
  0.00000000E+00 -6.42367665E-01  0.00000000E+00  0.00000000E+00  0.00000000E+00
  0.00000000E+00  0.00000000E+00  0.00000000E+00  0.00000000E+00  0.00000000E+00
  0.00000000E+00  0.00000000E+00 -7.38595040E-01  0.00000000E+00  0.00000000E+00
  0.00000000E+00  1.51411613E+00  0.00000000E+00  0.00000000E+00  0.00000000E+00
 -1.16888405E+00  0.00000000E+00  0.00000000E+00  0.00000000E+00  0.00000000E+00
  0.00000000E+00  0.00000000E+00  0.00000000E+00  0.00000000E+00  0.00000000E+00
  3.38496871E-01  0.00000000E+00  0.00000000E+00  0.00000000E+00  4.84301624E-01
  0.00000000E+00  0.00000000E+00  0.00000000E+00  4.13451438E-01  0.00000000E+00
  0.00000000E+00  0.00000000E+00  0.00000000E+00  0.00000000E+00  0.00000000E+00
  0.00000000E+00  0.00000000E+00  0.00000000E+00  0.00000000E+00  8.79966812E-01
  0.00000000E+00  0.00000000E+00  0.00000000E+00 -6.66489147E-02  0.00000000E+00
  0.00000000E+00  0.00000000E+00 -6.42367665E-01  0.00000000E+00  0.00000000E+00
  0.00000000E+00  0.00000000E+00  0.00000000E+00  0.00000000E+00  0.00000000E+00
  0.00000000E+00  0.00000000E+00  0.00000000E+00 -7.38595040E-01  0.00000000E+00
  0.00000000E+00  0.00000000E+00  1.51411613E+00  0.00000000E+00  0.00000000E+00
  0.00000000E+00 -1.16888405E+00  0.00000000E+00  0.00000000E+00  0.00000000E+00
  0.00000000E+00  0.00000000E+00  0.00000000E+00  0.00000000E+00  0.00000000E+00
  0.00000000E+00  3.38496871E-01  0.00000000E+00  0.00000000E+00  0.00000000E+00
  4.84301624E-01  0.00000000E+00  0.00000000E+00  0.00000000E+00  4.13451438E-01
  0.00000000E+00  0.00000000E+00  0.00000000E+00  0.00000000E+00  0.00000000E+00
  0.00000000E+00  0.00000000E+00  0.00000000E+00  0.00000000E+00  0.00000000E+00
  8.79966812E-01  0.00000000E+00  0.00000000E+00  0.00000000E+00 -6.66489147E-02
  0.00000000E+00  0.00000000E+00  0.00000000E+00 -6.42367665E-01  0.00000000E+00
  0.00000000E+00  0.00000000E+00  0.00000000E+00  0.00000000E+00  0.00000000E+00
  0.00000000E+00  0.00000000E+00  0.00000000E+00  0.00000000E+00 -7.38595040E-01
  0.00000000E+00  0.00000000E+00  0.00000000E+00  1.51411613E+00  0.00000000E+00
  0.00000000E+00  0.00000000E+00 -1.16888405E+00  0.00000000E+00  0.00000000E+00
  0.00000000E+00  0.00000000E+00  0.00000000E+00  0.00000000E+00  0.00000000E+00
  0.00000000E+00
Total SCF Density                          R   N=         190
  2.08121941E+00 -2.07310083E-01  6.11913909E-01  0.00000000E+00  0.00000000E+00
  5.14708286E-01  0.00000000E+00  0.00000000E+00  2.46519033E-32  5.14708286E-01
  0.00000000E+00  0.00000000E+00  6.43291461E-18 -6.43291461E-18  9.34938159E-01
 -2.27382590E-01  5.89708416E-01  0.00000000E+00  0.00000000E+00  0.00000000E+00
  5.70451302E-01  0.00000000E+00  0.00000000E+00  2.83796245E-01 -3.85185989E-33
  4.18783395E-18  0.00000000E+00  1.56477583E-01  0.00000000E+00  0.00000000E+00
 -3.85185989E-33  2.83796245E-01 -4.18783395E-18  0.00000000E+00 -1.27111376E-32
  1.56477583E-01  0.00000000E+00  0.00000000E+00  4.18783395E-18 -4.18783395E-18
  5.57366319E-01  0.00000000E+00  2.69382449E-18 -2.69382449E-18  3.32451553E-01
 -4.79091596E-03  6.99425969E-04  0.00000000E+00  0.00000000E+00  0.00000000E+00
  1.30639556E-03  0.00000000E+00  0.00000000E+00  0.00000000E+00  1.95978939E-04
  0.00000000E+00  0.00000000E+00  3.83973215E-02 -1.59852185E-32  1.47839655E-18
  0.00000000E+00  2.11712458E-02 -1.01111322E-32  9.11943782E-19  0.00000000E+00
  2.86444640E-03  0.00000000E+00  0.00000000E+00 -1.59852185E-32  3.83973215E-02
 -1.47839655E-18  0.00000000E+00 -1.01111322E-32  2.11712458E-02 -9.11943782E-19
  0.00000000E+00 -2.51574599E-33  2.86444640E-03  0.00000000E+00  0.00000000E+00
  1.47839655E-18 -1.47839655E-18  1.34973513E-01  0.00000000E+00  9.11943782E-19
 -9.11943782E-19  8.07439345E-02  0.00000000E+00  2.61216170E-19 -2.61216170E-19
  1.99283816E-02 -1.88848341E-02  4.56045100E-03  0.00000000E+00  0.00000000E+00
  0.00000000E+00  4.18969180E-03  0.00000000E+00  0.00000000E+00  0.00000000E+00
 -9.80680526E-05  0.00000000E+00  0.00000000E+00  0.00000000E+00  2.95401847E-04
 -1.88848341E-02  4.56045100E-03  0.00000000E+00  0.00000000E+00  0.00000000E+00
  4.18969180E-03  0.00000000E+00  0.00000000E+00  0.00000000E+00 -9.80680526E-05
  0.00000000E+00  0.00000000E+00  0.00000000E+00  2.95401847E-04  2.95401847E-04
 -1.47713397E-02 -5.83038715E-03  0.00000000E+00  0.00000000E+00  0.00000000E+00
 -4.62598849E-03  0.00000000E+00  0.00000000E+00  0.00000000E+00  2.79280161E-04
  0.00000000E+00  0.00000000E+00  0.00000000E+00 -8.95069554E-05 -8.95069554E-05
  5.28076583E-04 -1.42883798E-32  2.21205802E-32  0.00000000E+00  0.00000000E+00
  0.00000000E+00  2.08627024E-32  0.00000000E+00  0.00000000E+00  0.00000000E+00
 -1.46593148E-34  0.00000000E+00  0.00000000E+00  0.00000000E+00  3.56818580E-34
  3.57687280E-34 -4.10569401E-34 -1.22842914E-52  7.27111709E-20 -1.83671094E-19