 Entering Gaussian System, Link 0=g09
 Input=atom.in
 Output=atom.log
 Initial command:
 /apps/gent/CO7/haswell-ib/software/Gaussian/g09_D.01-intel-2015a-amd64-gpfs/g09/l1.exe "/kyukon/home/gent/430/vsc43080/benzene/atoms/006__c_006_q+00/mult03/Gau-12246.inp" -scrdir="/kyukon/home/gent/430/vsc43080/benzene/atoms/006__c_006_q+00/mult03/"
 Entering Link 1 = /apps/gent/CO7/haswell-ib/software/Gaussian/g09_D.01-intel-2015a-amd64-gpfs/g09/l1.exe.bin PID=     12247.

 Copyright (c) 1988,1990,1992,1993,1995,1998,2003,2009,2013,
            Gaussian, Inc.  All Rights Reserved.

 This is part of the Gaussian(R) 09 program.  It is based on
 the Gaussian(R) 03 system (copyright 2003, Gaussian, Inc.),
 the Gaussian(R) 98 system (copyright 1998, Gaussian, Inc.),
 the Gaussian(R) 94 system (copyright 1995, Gaussian, Inc.),
 the Gaussian 92(TM) system (copyright 1992, Gaussian, Inc.),
 the Gaussian 90(TM) system (copyright 1990, Gaussian, Inc.),
 the Gaussian 88(TM) system (copyright 1988, Gaussian, Inc.),
 the Gaussian 86(TM) system (copyright 1986, Carnegie Mellon
 University), and the Gaussian 82(TM) system (copyright 1983,
 Carnegie Mellon University). Gaussian is a federally registered
 trademark of Gaussian, Inc.

 This software contains proprietary and confidential information,
 including trade secrets, belonging to Gaussian, Inc.

 This software is provided under written license and may be
 used, copied, transmitted, or stored only in accord with that
 written license.

 The following legend is applicable only to US Government
 contracts under FAR:

                    RESTRICTED RIGHTS LEGEND

 Use, reproduction and disclosure by the US Government is
 subject to restrictions as set forth in subparagraphs (a)
 and (c) of the Commercial Computer Software - Restricted
 Rights clause in FAR 52.227-19.

 Gaussian, Inc.
 340 Quinnipiac St., Bldg. 40, Wallingford CT 06492


 ---------------------------------------------------------------
 Warning -- This program may not be used in any manner that
 competes with the business of Gaussian, Inc. or will provide
 assistance to any competitor of Gaussian, Inc.  The licensee
 of this program is prohibited from giving any competitor of
 Gaussian, Inc. access to this program.  By using this program,
 the user acknowledges that Gaussian, Inc. is engaged in the
 business of creating and licensing software in the field of
 computational chemistry and represents and warrants to the
 licensee that it is not a competitor of Gaussian, Inc. and that
 it will not use this program in any manner prohibited above.
 ---------------------------------------------------------------


 Cite this work as:
 Gaussian 09, Revision D.01,
 M. J. Frisch, G. W. Trucks, H. B. Schlegel, G. E. Scuseria,
 M. A. Robb, J. R. Cheeseman, G. Scalmani, V. Barone, B. Mennucci,
 G. A. Petersson, H. Nakatsuji, M. Caricato, X. Li, H. P. Hratchian,
 A. F. Izmaylov, J. Bloino, G. Zheng, J. L. Sonnenberg, M. Hada,
 M. Ehara, K. Toyota, R. Fukuda, J. Hasegawa, M. Ishida, T. Nakajima,
 Y. Honda, O. Kitao, H. Nakai, T. Vreven, J. A. Montgomery, Jr.,
 J. E. Peralta, F. Ogliaro, M. Bearpark, J. J. Heyd, E. Brothers,
 K. N. Kudin, V. N. Staroverov, T. Keith, R. Kobayashi, J. Normand,
 K. Raghavachari, A. Rendell, J. C. Burant, S. S. Iyengar, J. Tomasi,
 M. Cossi, N. Rega, J. M. Millam, M. Klene, J. E. Knox, J. B. Cross,
 V. Bakken, C. Adamo, J. Jaramillo, R. Gomperts, R. E. Stratmann,
 O. Yazyev, A. J. Austin, R. Cammi, C. Pomelli, J. W. Ochterski,
 R. L. Martin, K. Morokuma, V. G. Zakrzewski, G. A. Voth,
 P. Salvador, J. J. Dannenberg, S. Dapprich, A. D. Daniels,
 O. Farkas, J. B. Foresman, J. V. Ortiz, J. Cioslowski,
 and D. J. Fox, Gaussian, Inc., Wallingford CT, 2013.

 ******************************************
 Gaussian 09:  ES64L-G09RevD.01 24-Apr-2013
                30-Sep-2020
 ******************************************
 %chk=atom.chk
 %nproc=1
 Will use up to    1 processors via shared memory.
 %mem=1GB
 --------------------------
 #PBEPBE/6-31+g** scf=tight
 --------------------------
 1/38=1/1;
 2/12=2,17=6,18=5,40=1/2;
 3/5=1,6=6,7=111,11=2,16=1,25=1,30=1,74=1009/1,2,3;
 4//1;
 5/5=2,32=2,38=5/2;
 6/7=2,8=2,9=2,10=2,28=1/1;
 99/5=1,9=1/99;
 Leave Link    1 at Wed Sep 30 15:59:08 2020, MaxMem=   134217728 cpu:         0.0
 (Enter /apps/gent/CO7/haswell-ib/software/Gaussian/g09_D.01-intel-2015a-amd64-gpfs/g09/l101.exe.bin)
 -----
 fubar
 -----
 Symbolic Z-matrix:
 Charge =  0 Multiplicity = 3
 C                     0.        0.        0.

 NAtoms=      1 NQM=        1 NQMF=       0 NMMI=      0 NMMIF=      0
                NMic=       0 NMicF=      0.
                    Isotopes and Nuclear Properties:
 (Nuclear quadrupole moments (NQMom) in fm**2, nuclear magnetic moments (NMagM)
  in nuclear magnetons)

  Atom         1
 IAtWgt=          12
 AtmWgt=  12.0000000
 NucSpn=           0
 AtZEff=   0.0000000
 NQMom=    0.0000000
 NMagM=    0.0000000
 AtZNuc=   6.0000000
 Leave Link  101 at Wed Sep 30 15:59:08 2020, MaxMem=   134217728 cpu:         0.0
 (Enter /apps/gent/CO7/haswell-ib/software/Gaussian/g09_D.01-intel-2015a-amd64-gpfs/g09/l202.exe.bin)
                          Input orientation:
 ---------------------------------------------------------------------
 Center     Atomic      Atomic             Coordinates (Angstroms)
 Number     Number       Type             X           Y           Z
 ---------------------------------------------------------------------
      1          6           0        0.000000    0.000000    0.000000
 ---------------------------------------------------------------------
 Stoichiometry    C(3)
 Framework group  OH[O(C)]
 Deg. of freedom     0
 Full point group                 OH      NOp  48
 Largest Abelian subgroup         D2H     NOp   8
 Largest concise Abelian subgroup C1      NOp   1
                         Standard orientation:
 ---------------------------------------------------------------------
 Center     Atomic      Atomic             Coordinates (Angstroms)
 Number     Number       Type             X           Y           Z
 ---------------------------------------------------------------------
      1          6           0        0.000000    0.000000    0.000000
 ---------------------------------------------------------------------
 Leave Link  202 at Wed Sep 30 15:59:09 2020, MaxMem=   134217728 cpu:         0.0
 (Enter /apps/gent/CO7/haswell-ib/software/Gaussian/g09_D.01-intel-2015a-amd64-gpfs/g09/l301.exe.bin)
 Standard basis: 6-31+G(d,p) (6D, 7F)
 Ernie: Thresh=  0.10000D-02 Tol=  0.10000D-05 Strict=F.
 There are     7 symmetry adapted cartesian basis functions of AG  symmetry.
 There are     1 symmetry adapted cartesian basis functions of B1G symmetry.
 There are     1 symmetry adapted cartesian basis functions of B2G symmetry.
 There are     1 symmetry adapted cartesian basis functions of B3G symmetry.
 There are     0 symmetry adapted cartesian basis functions of AU  symmetry.
 There are     3 symmetry adapted cartesian basis functions of B1U symmetry.
 There are     3 symmetry adapted cartesian basis functions of B2U symmetry.
 There are     3 symmetry adapted cartesian basis functions of B3U symmetry.
 There are     7 symmetry adapted basis functions of AG  symmetry.
 There are     1 symmetry adapted basis functions of B1G symmetry.
 There are     1 symmetry adapted basis functions of B2G symmetry.
 There are     1 symmetry adapted basis functions of B3G symmetry.
 There are     0 symmetry adapted basis functions of AU  symmetry.
 There are     3 symmetry adapted basis functions of B1U symmetry.
 There are     3 symmetry adapted basis functions of B2U symmetry.
 There are     3 symmetry adapted basis functions of B3U symmetry.
    19 basis functions,    32 primitive gaussians,    19 cartesian basis functions
     4 alpha electrons        2 beta electrons
       nuclear repulsion energy         0.0000000000 Hartrees.
 IExCor= 1009 DFT=T Ex=PBE Corr=PBE ExCW=0 ScaHFX=  0.000000
 ScaDFX=  1.000000  1.000000  1.000000  1.000000 ScalE2=  1.000000  1.000000
 IRadAn=      0 IRanWt=     -1 IRanGd=            0 ICorTp=0 IEmpDi=  4
 NAtoms=    1 NActive=    1 NUniq=    1 SFac= 1.00D+00 NAtFMM=   60 NAOKFM=F Big=F
 Integral buffers will be    131072 words long.
 Raffenetti 2 integral format.
 Two-electron integral symmetry is turned on.
 Leave Link  301 at Wed Sep 30 15:59:09 2020, MaxMem=   134217728 cpu:         0.0
 (Enter /apps/gent/CO7/haswell-ib/software/Gaussian/g09_D.01-intel-2015a-amd64-gpfs/g09/l302.exe.bin)
 NPDir=0 NMtPBC=     1 NCelOv=     1 NCel=       1 NClECP=     1 NCelD=      1
         NCelK=      1 NCelE2=     1 NClLst=     1 CellRange=     0.0.
 One-electron integrals computed using PRISM.
 NBasis=    19 RedAO= T EigKep=  1.31D-01  NBF=     7     1     1     1     0     3     3     3
 NBsUse=    19 1.00D-06 EigRej= -1.00D+00 NBFU=     7     1     1     1     0     3     3     3
 Precomputing XC quadrature grid using
 IXCGrd= 4 IRadAn=           0 IRanWt=          -1 IRanGd=           0 AccXCQ= 0.00D+00.
 Generated NRdTot=       0 NPtTot=           0 NUsed=           0 NTot=          32
 NSgBfM=    19    19    19    19    19 MxSgAt=     1 MxSgA2=     1.
 Leave Link  302 at Wed Sep 30 15:59:09 2020, MaxMem=   134217728 cpu:         0.0
 (Enter /apps/gent/CO7/haswell-ib/software/Gaussian/g09_D.01-intel-2015a-amd64-gpfs/g09/l303.exe.bin)
 DipDrv:  MaxL=1.
 Leave Link  303 at Wed Sep 30 15:59:09 2020, MaxMem=   134217728 cpu:         0.0
 (Enter /apps/gent/CO7/haswell-ib/software/Gaussian/g09_D.01-intel-2015a-amd64-gpfs/g09/l401.exe.bin)
 ExpMin= 4.38D-02 ExpMax= 3.05D+03 ExpMxC= 4.57D+02 IAcc=2 IRadAn=         4 AccDes= 0.00D+00
 Harris functional with IExCor= 1009 and IRadAn=       4 diagonalized for initial guess.
 HarFok:  IExCor= 1009 AccDes= 0.00D+00 IRadAn=         4 IDoV= 1 UseB2=F ITyADJ=14
 ICtDFT=  3500011 ScaDFX=  1.000000  1.000000  1.000000  1.000000
 FoFCou: FMM=F IPFlag=           0 FMFlag=      100000 FMFlg1=           0
         NFxFlg=           0 DoJE=T BraDBF=F KetDBF=T FulRan=T
         wScrn=  0.000000 ICntrl=     500 IOpCl=  0 I1Cent=   200000004 NGrid=           0
         NMat0=    1 NMatS0=      1 NMatT0=    0 NMatD0=    1 NMtDS0=    0 NMtDT0=    0
 Petite list used in FoFCou.
 Harris En= -37.7316868190180
 JPrj=0 DoOrth=F DoCkMO=F.
 Initial guess orbital symmetries:
 Alpha Orbitals:
       Occupied  (A1G) (A1G) (T1U) (T1U)
       Virtual   (T1U) (A1G) (T1U) (T1U) (T1U) (T1U) (T1U) (T1U)
                 (A1G) (EG) (EG) (T2G) (T2G) (T2G) (A1G)
 Beta  Orbitals:
       Occupied  (A1G) (A1G)
       Virtual   (T1U) (T1U) (T1U) (A1G) (T1U) (T1U) (T1U) (T1U)
                 (T1U) (T1U) (A1G) (EG) (EG) (T2G) (T2G) (T2G)
                 (A1G)
 Initial guess <Sx>= 0.0000 <Sy>= 0.0000 <Sz>= 1.0000 <S**2>= 2.0000 S= 1.0000
 Leave Link  401 at Wed Sep 30 15:59:10 2020, MaxMem=   134217728 cpu:         0.1
 (Enter /apps/gent/CO7/haswell-ib/software/Gaussian/g09_D.01-intel-2015a-amd64-gpfs/g09/l502.exe.bin)
 UHF open shell SCF:
 Using DIIS extrapolation, IDIIS=  1040.
 Integral symmetry usage will be decided dynamically.
 Keep J ints in memory in symmetry-blocked form, NReq=900040.
 IVT=       20414 IEndB=       20414 NGot=   134217728 MDV=   134192115
 LenX=   134192115 LenY=   134191233
 Requested convergence on RMS density matrix=1.00D-08 within 128 cycles.
 Requested convergence on MAX density matrix=1.00D-06.
 Requested convergence on             energy=1.00D-06.
 No special actions if energy rises.
 FoFCou: FMM=F IPFlag=           0 FMFlag=           0 FMFlg1=           0
         NFxFlg=           0 DoJE=F BraDBF=F KetDBF=F FulRan=T
         wScrn=  0.000000 ICntrl=     600 IOpCl=  0 I1Cent=           0 NGrid=           0
         NMat0=    1 NMatS0=    190 NMatT0=    0 NMatD0=    1 NMtDS0=    0 NMtDT0=    0
 Petite list used in FoFCou.

 Cycle   1  Pass 1  IDiag  1:
 Density matrix breaks symmetry, PCut= 1.00D-04
 Density has only Abelian symmetry.
 E= -37.7813580971871
 DIIS: error= 2.08D-02 at cycle   1 NSaved=   1.
 NSaved= 1 IEnMin= 1 EnMin= -37.7813580971871     IErMin= 1 ErrMin= 2.08D-02
 ErrMax= 2.08D-02  0.00D+00 EMaxC= 1.00D-01 BMatC= 1.82D-02 BMatP= 1.82D-02
 IDIUse=3 WtCom= 7.92D-01 WtEn= 2.08D-01
 Coeff-Com:  0.100D+01
 Coeff-En:   0.100D+01
 Coeff:      0.100D+01
 Gap=     0.014 Goal=   None    Shift=    0.000
 Gap=     0.277 Goal=   None    Shift=    0.000
 GapD=    0.014 DampG=0.250 DampE=0.500 DampFc=0.2500 IDamp=-1.
 Damping current iteration by 2.50D-01
 RMSDP=7.44D-03 MaxDP=9.11D-02              OVMax= 8.48D-02

 Cycle   2  Pass 1  IDiag  1:
 Density matrix breaks symmetry, PCut= 1.00D-04
 Density has only Abelian symmetry.
 E= -37.7836572329941     Delta-E=       -0.002299135807 Rises=F Damp=T
 DIIS: error= 1.65D-02 at cycle   2 NSaved=   2.
 NSaved= 2 IEnMin= 2 EnMin= -37.7836572329941     IErMin= 2 ErrMin= 1.65D-02
 ErrMax= 1.65D-02  0.00D+00 EMaxC= 1.00D-01 BMatC= 7.45D-03 BMatP= 1.82D-02
 IDIUse=3 WtCom= 8.35D-01 WtEn= 1.65D-01
 Coeff-Com: -0.147D+01 0.247D+01
 Coeff-En:   0.000D+00 0.100D+01
 Coeff:     -0.123D+01 0.223D+01
 Gap=     0.016 Goal=   None    Shift=    0.000
 Gap=     0.272 Goal=   None    Shift=    0.000
 RMSDP=3.05D-03 MaxDP=3.57D-02 DE=-2.30D-03 OVMax= 2.84D-02

 Cycle   3  Pass 1  IDiag  1:
 Density matrix breaks symmetry, PCut= 1.00D-04
 Density has only Abelian symmetry.
 E= -37.7884918189839     Delta-E=       -0.004834585990 Rises=F Damp=F
 DIIS: error= 1.28D-03 at cycle   3 NSaved=   3.
 NSaved= 3 IEnMin= 3 EnMin= -37.7884918189839     IErMin= 3 ErrMin= 1.28D-03
 ErrMax= 1.28D-03  0.00D+00 EMaxC= 1.00D-01 BMatC= 4.18D-05 BMatP= 7.45D-03
 IDIUse=3 WtCom= 9.87D-01 WtEn= 1.28D-02
 Coeff-Com:  0.305D+00-0.469D+00 0.116D+01
 Coeff-En:   0.000D+00 0.000D+00 0.100D+01
 Coeff:      0.301D+00-0.463D+00 0.116D+01
 Gap=     0.018 Goal=   None    Shift=    0.000
 Gap=     0.269 Goal=   None    Shift=    0.000
 RMSDP=2.28D-04 MaxDP=3.61D-03 DE=-4.83D-03 OVMax= 3.25D-03

 Cycle   4  Pass 1  IDiag  1:
 Density matrix breaks symmetry, PCut= 1.00D-04
 Density has only Abelian symmetry.
 E= -37.7885056546790     Delta-E=       -0.000013835695 Rises=F Damp=F
 DIIS: error= 5.50D-05 at cycle   4 NSaved=   4.
 NSaved= 4 IEnMin= 4 EnMin= -37.7885056546790     IErMin= 4 ErrMin= 5.50D-05
 ErrMax= 5.50D-05  0.00D+00 EMaxC= 1.00D-01 BMatC= 1.88D-07 BMatP= 4.18D-05
 IDIUse=1 WtCom= 1.00D+00 WtEn= 0.00D+00
 Coeff-Com: -0.266D-01 0.368D-01-0.675D-01 0.106D+01
 Coeff:     -0.266D-01 0.368D-01-0.675D-01 0.106D+01
 Gap=     0.018 Goal=   None    Shift=    0.000
 Gap=     0.269 Goal=   None    Shift=    0.000
 RMSDP=1.70D-05 MaxDP=2.26D-04 DE=-1.38D-05 OVMax= 1.36D-04

 Cycle   5  Pass 1  IDiag  1:
 Density matrix breaks symmetry, PCut= 1.00D-04
 Density has only Abelian symmetry.
 E= -37.7885057270772     Delta-E=       -0.000000072398 Rises=F Damp=F
 DIIS: error= 4.61D-06 at cycle   5 NSaved=   5.
 NSaved= 5 IEnMin= 5 EnMin= -37.7885057270772     IErMin= 5 ErrMin= 4.61D-06
 ErrMax= 4.61D-06  0.00D+00 EMaxC= 1.00D-01 BMatC= 1.37D-09 BMatP= 1.88D-07
 IDIUse=1 WtCom= 1.00D+00 WtEn= 0.00D+00
 Coeff-Com:  0.139D-03-0.158D-03-0.202D-02 0.509D-01 0.951D+00
 Coeff:      0.139D-03-0.158D-03-0.202D-02 0.509D-01 0.951D+00
 Gap=     0.018 Goal=   None    Shift=    0.000
 Gap=     0.269 Goal=   None    Shift=    0.000
 RMSDP=1.31D-06 MaxDP=1.57D-05 DE=-7.24D-08 OVMax= 1.05D-05

 Cycle   6  Pass 1  IDiag  1:
 Density matrix breaks symmetry, PCut= 1.00D-04
 Density has only Abelian symmetry.
 E= -37.7885057275751     Delta-E=       -0.000000000498 Rises=F Damp=F
 DIIS: error= 6.81D-08 at cycle   6 NSaved=   6.
 NSaved= 6 IEnMin= 6 EnMin= -37.7885057275751     IErMin= 6 ErrMin= 6.81D-08
 ErrMax= 6.81D-08  0.00D+00 EMaxC= 1.00D-01 BMatC= 1.24D-13 BMatP= 1.37D-09
 IDIUse=1 WtCom= 1.00D+00 WtEn= 0.00D+00
 Coeff-Com:  0.169D-04-0.230D-04 0.993D-04-0.211D-02-0.299D-01 0.103D+01
 Coeff:      0.169D-04-0.230D-04 0.993D-04-0.211D-02-0.299D-01 0.103D+01
 Gap=     0.018 Goal=   None    Shift=    0.000
 Gap=     0.269 Goal=   None    Shift=    0.000
 RMSDP=1.73D-08 MaxDP=1.61D-07 DE=-4.98D-10 OVMax= 2.10D-07

 Cycle   7  Pass 1  IDiag  1:
 Density matrix breaks symmetry, PCut= 1.00D-04
 Density has only Abelian symmetry.
 E= -37.7885057275752     Delta-E=       -0.000000000000 Rises=F Damp=F
 DIIS: error= 5.84D-09 at cycle   7 NSaved=   7.
 NSaved= 7 IEnMin= 7 EnMin= -37.7885057275752     IErMin= 7 ErrMin= 5.84D-09
 ErrMax= 5.84D-09  0.00D+00 EMaxC= 1.00D-01 BMatC= 1.38D-15 BMatP= 1.24D-13
 IDIUse=1 WtCom= 1.00D+00 WtEn= 0.00D+00
 Coeff-Com: -0.433D-06 0.509D-06-0.534D-06 0.215D-04 0.116D-02-0.370D-01
 Coeff-Com:  0.104D+01
 Coeff:     -0.433D-06 0.509D-06-0.534D-06 0.215D-04 0.116D-02-0.370D-01
 Coeff:      0.104D+01
 Gap=     0.018 Goal=   None    Shift=    0.000
 Gap=     0.269 Goal=   None    Shift=    0.000
 RMSDP=1.34D-09 MaxDP=1.67D-08 DE=-8.53D-14 OVMax= 1.50D-08

 Density matrix breaks symmetry, PCut= 1.00D-04
 Density has only Abelian symmetry.
 SCF Done:  E(UPBE-PBE) =  -37.7885057276     A.U. after    7 cycles
            NFock=  7  Conv=0.13D-08     -V/T= 2.0087
 <Sx>= 0.0000 <Sy>= 0.0000 <Sz>= 1.0000 <S**2>= 2.0020 S= 1.0007
 <L.S>=  0.00000000000
 KE= 3.746215724145D+01 PE=-8.786286279513D+01 EE= 1.261219982611D+01
 Annihilation of the first spin contaminant:
 S**2 before annihilation     2.0020,   after     2.0000
 Leave Link  502 at Wed Sep 30 15:59:10 2020, MaxMem=   134217728 cpu:         0.1
 (Enter /apps/gent/CO7/haswell-ib/software/Gaussian/g09_D.01-intel-2015a-amd64-gpfs/g09/l601.exe.bin)
 Copying SCF densities to generalized density rwf, IOpCl= 1 IROHF=0.

 **********************************************************************

            Population analysis using the SCF density.

 **********************************************************************

 Orbital symmetries:
 Alpha Orbitals:
       Occupied  (A1G) (A1G) (?A) (?A)
       Virtual   (?A) (A1G) (?A) (?A) (?A) (?A) (?A) (?A) (T2G)
                 (T2G) (T2G) (T2G) (T2G) (T2G) (A1G)
 Beta  Orbitals:
       Occupied  (A1G) (?A)
       Virtual   (?B) (?B) (?B) (?A) (?B) (?B) (?B) (?B) (?B) (?B)
                 (?A) (?A) (T2G) (T2G) (?A) (T2G) (A1G)
 Unable to determine electronic state:  an orbital has unidentified symmetry.
 Alpha  occ. eigenvalues --  -10.04426  -0.53130  -0.22254  -0.22254
 Alpha virt. eigenvalues --   -0.20488   0.01874   0.05602   0.05602   0.06238
 Alpha virt. eigenvalues --    0.58224   0.58224   0.59797   0.73958   1.54583
 Alpha virt. eigenvalues --    1.54584   1.55002   1.55002   1.56962   3.78198
  Beta  occ. eigenvalues --  -10.01792  -0.43732
  Beta virt. eigenvalues --   -0.16824  -0.11193  -0.11193   0.05121   0.08307
  Beta virt. eigenvalues --    0.09678   0.09678   0.62389   0.66244   0.66244
  Beta virt. eigenvalues --    0.80608   1.62194   1.64040   1.64040   1.69290
  Beta virt. eigenvalues --    1.69290   3.86388
          Condensed to atoms (all electrons):
               1
     1  C    6.000000
          Atomic-Atomic Spin Densities.
               1
     1  C    2.000000
 Mulliken charges and spin densities:
               1          2
     1  C   -0.000000   2.000000
 Sum of Mulliken charges =  -0.00000   2.00000
 Mulliken charges and spin densities with hydrogens summed into heavy atoms:
               1          2
     1  C   -0.000000   2.000000
 Electronic spatial extent (au):  <R**2>=             14.3078
 Charge=             -0.0000 electrons
 Dipole moment (field-independent basis, Debye):
    X=              0.0000    Y=              0.0000    Z=              0.0000  Tot=              0.0000
 Quadrupole moment (field-independent basis, Debye-Ang):
   XX=             -7.1172   YY=             -5.0100   ZZ=             -7.1172
   XY=             -0.0000   XZ=              0.0000   YZ=              0.0000
 Traceless Quadrupole moment (field-independent basis, Debye-Ang):
   XX=             -0.7024   YY=              1.4048   ZZ=             -0.7024
   XY=             -0.0000   XZ=              0.0000   YZ=              0.0000
 Octapole moment (field-independent basis, Debye-Ang**2):
  XXX=              0.0000  YYY=              0.0000  ZZZ=              0.0000  XYY=              0.0000
  XXY=              0.0000  XXZ=              0.0000  XZZ=              0.0000  YZZ=              0.0000
  YYZ=              0.0000  XYZ=              0.0000
 Hexadecapole moment (field-independent basis, Debye-Ang**3):
 XXXX=            -11.2661 YYYY=             -5.6403 ZZZZ=            -11.2661 XXXY=             -0.0000
 XXXZ=              0.0000 YYYX=             -0.0000 YYYZ=              0.0000 ZZZX=              0.0000
 ZZZY=              0.0000 XXYY=             -2.8177 XXZZ=             -3.7554 YYZZ=             -2.8177
 XXYZ=              0.0000 YYXZ=              0.0000 ZZXY=             -0.0000
 N-N= 0.000000000000D+00 E-N=-8.786286288044D+01  KE= 3.746215724145D+01
 Symmetry AG   KE= 3.498442626836D+01
 Symmetry B1G  KE= 9.982600315039D-36
 Symmetry B2G  KE= 0.000000000000D+00
 Symmetry B3G  KE= 9.982600315039D-36
 Symmetry AU   KE= 0.000000000000D+00
 Symmetry B1U  KE= 1.238865486543D+00
 Symmetry B2U  KE= 4.645001582113D-33
 Symmetry B3U  KE= 1.238865486543D+00
                          Isotropic Fermi Contact Couplings
        Atom                 a.u.       MegaHertz       Gauss      10(-4) cm-1
     1  C(13)              0.01885      10.59561       3.78078       3.53432
 --------------------------------------------------------
       Center         ----  Spin Dipole Couplings  ----
                      3XX-RR        3YY-RR        3ZZ-RR
 --------------------------------------------------------
     1   Atom        0.641766     -1.283532      0.641766
 --------------------------------------------------------
                        XY            XZ            YZ
 --------------------------------------------------------
     1   Atom        0.000000      0.000000      0.000000
 --------------------------------------------------------


 ---------------------------------------------------------------------------------
              Anisotropic Spin Dipole Couplings in Principal Axis System
 ---------------------------------------------------------------------------------

       Atom             a.u.   MegaHertz   Gauss  10(-4) cm-1        Axes

              Baa    -1.2835  -172.238   -61.459   -57.452  0.0000  1.0000  0.0000
     1 C(13)  Bbb     0.6418    86.119    30.729    28.726  1.0000  0.0000  0.0000
              Bcc     0.6418    86.119    30.729    28.726  0.0000  0.0000  1.0000


 ---------------------------------------------------------------------------------

 No NMR shielding tensors so no spin-rotation constants.
 Leave Link  601 at Wed Sep 30 15:59:10 2020, MaxMem=   134217728 cpu:         0.1
 (Enter /apps/gent/CO7/haswell-ib/software/Gaussian/g09_D.01-intel-2015a-amd64-gpfs/g09/l9999.exe.bin)
 1\1\GINC-GLIGAR05\SP\UPBEPBE\6-31+G(d,p)\C1(3)\VSC43080\30-Sep-2020\0\
 \#PBEPBE/6-31+g** scf=tight\\fubar\\0,3\C,0,0.,0.,0.\\Version=ES64L-G0
 9RevD.01\HF=-37.7885057\S2=2.002001\S2-1=0.\S2A=2.\RMSD=1.344e-09\Dipo
 le=0.,0.,0.\Quadrupole=-0.5222158,1.0444316,-0.5222158,0.,0.,0.\PG=OH
 [O(C1)]\\@


 ADAM SMITH SAID, "THE REAL PRICE OF ANYTHING IS THE TOIL AND TROUBLE
 OF ACQUIRING IT."  BUT IN ALL UNDERTAKINGS WITH NATURE WE SHOULD FIRST
 READ CAREFULLY THE SMALL PRINT IN THE CONTRACT. THIS MIGHT DISCLOSE
 THAT THE REAL PRICE IS TO BE PAID BY THOSE WHO INHERIT THE DEPLETION
 AND DESPOILATION THAT FOLLOWS.
                               -- E. R. HARRISON IN "COSMOLOGY" (1980)
 Job cpu time:       0 days  0 hours  0 minutes  0.5 seconds.
 File lengths (MBytes):  RWF=    136 Int=      0 D2E=      0 Chk=      4 Scr=      4
 Normal termination of Gaussian 09 at Wed Sep 30 15:59:10 2020.
