fubar
SP        UPBEPBE                                                     6-31+G(d,p)
Number of atoms                            I                1
Info1-9                                    I   N=           9
          11          10           0           0           0         110
           1          18         902
Full Title                                 C   N=           1
fubar
Route                                      C   N=           3
#PBEPBE/6-31+g** scf=tight
Charge                                     I                3
Multiplicity                               I                2
Number of electrons                        I                5
Number of alpha electrons                  I                3
Number of beta electrons                   I                2
Number of basis functions                  I               19
Number of independent functions            I               19
Number of point charges in /Mol/           I                0
Number of translation vectors              I                0
Atomic numbers                             I   N=           1
           8
Nuclear charges                            R   N=           1
  8.00000000E+00
Current cartesian coordinates              R   N=           3
  0.00000000E+00  0.00000000E+00  0.00000000E+00
Number of symbols in /Mol/                 I                0
Int Atom Types                             I   N=           1
           0
Force Field                                I                0
Atom Types                                 C   N=           1

MM charges                                 R   N=           1
  0.00000000E+00
Integer atomic weights                     I   N=           1
          16
Real atomic weights                        R   N=           1
  1.59949146E+01
Atom fragment info                         I   N=           1
           0
Atom residue num                           I   N=           1
           0
Nuclear spins                              I   N=           1
           0
Nuclear ZEff                               R   N=           1
 -5.60000000E+00
Nuclear ZNuc                               R   N=           1
  8.00000000E+00
Nuclear QMom                               R   N=           1
  0.00000000E+00
Nuclear GFac                               R   N=           1
  0.00000000E+00
MicOpt                                     I   N=           1
          -1
Number of residues                         I                0
Number of secondary structures             I                0
SymInf integers                            I   N=          26
           1           8           1           1           1           1
          -1          -1          -1           1          -1          -1
          -1           1          -1          -1          -1          -1
           1           1           1          -1           1           1
           1          -1
RotTr to input orientation                 R   N=          12
  0.00000000E+00  0.00000000E+00 -1.00000000E+00  0.00000000E+00  1.00000000E+00
  0.00000000E+00  1.00000000E+00  0.00000000E+00  0.00000000E+00  0.00000000E+00
  0.00000000E+00  0.00000000E+00
Number of contracted shells                I                5
Number of primitive shells                 I               12
Pure/Cartesian d shells                    I                1
Pure/Cartesian f shells                    I                0
Highest angular momentum                   I                2
Largest degree of contraction              I                6
Shell types                                I   N=           5
           0          -1          -1          -1           2
Number of primitives per shell             I   N=           5
           6           3           1           1           1
Shell to atom map                          I   N=           5
           1           1           1           1           1
Primitive exponents                        R   N=          12
  5.48467166E+03  8.25234946E+02  1.88046958E+02  5.29645000E+01  1.68975704E+01
  5.79963534E+00  1.55396162E+01  3.59993359E+00  1.01376175E+00  2.70005823E-01
  8.45000000E-02  8.00000000E-01
Contraction coefficients                   R   N=          12
  1.83107443E-03  1.39501722E-02  6.84450781E-02  2.32714336E-01  4.70192898E-01
  3.58520853E-01 -1.10777550E-01 -1.48026263E-01  1.13076702E+00  1.00000000E+00
  1.00000000E+00  1.00000000E+00
P(S=P) Contraction coefficients            R   N=          12
  0.00000000E+00  0.00000000E+00  0.00000000E+00  0.00000000E+00  0.00000000E+00
  0.00000000E+00  7.08742682E-02  3.39752839E-01  7.27158577E-01  1.00000000E+00
  1.00000000E+00  0.00000000E+00
Coordinates of each shell                  R   N=          15
  0.00000000E+00  0.00000000E+00  0.00000000E+00  0.00000000E+00  0.00000000E+00
  0.00000000E+00  0.00000000E+00  0.00000000E+00  0.00000000E+00  0.00000000E+00
  0.00000000E+00  0.00000000E+00  0.00000000E+00  0.00000000E+00  0.00000000E+00
Num ILSW                                   I              100
ILSW                                       I   N=         100
           1           1           0           0           2           0
           0           0           0           0        1009          -1
           5           0           0           0           0           0
           0           0           0           0           0           0
           1           0           0           0           0           0
           0           0      100000           0          -1           0
           0           0           0           0           0           0
           0           0           0           1           0           0
           0 -2000000000           1           0           0           0
           0           1           4          52           0           0
           0           0           0           0           0           0
           0           0           0           1           0           1
           0           0           0           0           0           0
           0           0           0           0           0           0
           0           0           0           0           0           0
           0           0           0           0           0           0
           0           0           0           0
Num RLSW                                   I               52
RLSW                                       R   N=          52
  1.00000000E+00  1.00000000E+00  1.00000000E+00  1.00000000E+00  0.00000000E+00
  0.00000000E+00  0.00000000E+00  1.00000000E+00  0.00000000E+00  0.00000000E+00
  0.00000000E+00  0.00000000E+00  1.00000000E+00  0.00000000E+00  0.00000000E+00
  0.00000000E+00  0.00000000E+00  1.00000000E+00  0.00000000E+00  0.00000000E+00
  0.00000000E+00  0.00000000E+00  1.00000000E+00  0.00000000E+00  0.00000000E+00
  0.00000000E+00  0.00000000E+00  1.00000000E+00  0.00000000E+00  0.00000000E+00
  0.00000000E+00  0.00000000E+00  1.00000000E+00  0.00000000E+00  0.00000000E+00
  0.00000000E+00  0.00000000E+00  0.00000000E+00  1.00000000E+00  1.00000000E+00
  0.00000000E+00  1.00000000E+00  0.00000000E+00  0.00000000E+00  0.00000000E+00
  0.00000000E+00  0.00000000E+00  0.00000000E+00  0.00000000E+00  0.00000000E+00
  0.00000000E+00  0.00000000E+00
MxBond                                     I                1
NBond                                      I   N=           1
           0
IBond                                      I   N=           1
           0
RBond                                      R   N=           1
  0.00000000E+00
Virial Ratio                               R      2.013854548178312E+00
SCF Energy                                 R     -7.113023401751856E+01
Total Energy                               R     -7.113023401751856E+01
S**2                                       R      7.507389643078215E-01
S**2 after annihilation                    R      7.500000004809166E-01
RMS Density                                R      5.444713323160138E-09
Job Status                                 I                1
Nuclear derivative order                   I                0
External E-field                           R   N=          35
  0.00000000E+00  0.00000000E+00  0.00000000E+00  0.00000000E+00  0.00000000E+00
  0.00000000E+00  0.00000000E+00  0.00000000E+00  0.00000000E+00  0.00000000E+00
  0.00000000E+00  0.00000000E+00  0.00000000E+00  0.00000000E+00  0.00000000E+00
  0.00000000E+00  0.00000000E+00  0.00000000E+00  0.00000000E+00  0.00000000E+00
  0.00000000E+00  0.00000000E+00  0.00000000E+00  0.00000000E+00  0.00000000E+00
  0.00000000E+00  0.00000000E+00  0.00000000E+00  0.00000000E+00  0.00000000E+00
  0.00000000E+00  0.00000000E+00  0.00000000E+00  0.00000000E+00  0.00000000E+00
IOpCl                                      I                1
IROHF                                      I                0
Alpha Orbital Energies                     R   N=          19
 -2.16197286E+01 -2.95150884E+00 -2.45048349E+00 -2.40631848E+00 -2.40631848E+00
 -8.91844067E-01 -7.84620712E-01 -7.76542677E-01 -7.76542677E-01 -2.66297806E-01
 -2.59589838E-01 -2.59589838E-01 -1.23112067E-01 -9.81408397E-02 -9.81408397E-02
 -8.69124410E-02 -8.27241495E-02 -8.27241373E-02  1.81988547E+00
Beta Orbital Energies                      R   N=          19
 -2.15877574E+01 -2.86306610E+00 -2.36741911E+00 -2.36741911E+00 -2.25414997E+00
 -8.70955924E-01 -7.66139368E-01 -7.66139368E-01 -7.41760647E-01 -2.50859518E-01
 -2.50859518E-01 -2.26663754E-01 -9.82260620E-02 -6.70450262E-02 -6.70450256E-02
 -1.35859661E-02 -1.35859661E-02  4.13309908E-03  1.86967029E+00
Alpha MO coefficients                      R   N=         361
  9.93359849E-01  2.41897836E-02  0.00000000E+00  0.00000000E+00  0.00000000E+00
  9.97192905E-03  0.00000000E+00  0.00000000E+00  0.00000000E+00 -1.75287316E-03
  0.00000000E+00  0.00000000E+00  0.00000000E+00 -7.40254167E-03 -7.40254167E-03
 -7.21016119E-03  0.00000000E+00  0.00000000E+00  0.00000000E+00 -2.56400229E-01
  7.86985786E-01  0.00000000E+00  0.00000000E+00  0.00000000E+00  3.68015707E-01
  0.00000000E+00  0.00000000E+00  0.00000000E+00 -5.81253850E-02  0.00000000E+00
  0.00000000E+00  0.00000000E+00 -2.10153440E-02 -2.10153440E-02 -1.40929136E-02
  0.00000000E+00  0.00000000E+00  0.00000000E+00  0.00000000E+00  0.00000000E+00
  0.00000000E+00  0.00000000E+00  9.29163459E-01  0.00000000E+00  0.00000000E+00
  0.00000000E+00  1.32294739E-01  0.00000000E+00  0.00000000E+00  0.00000000E+00
 -8.61417129E-03  0.00000000E+00  0.00000000E+00  0.00000000E+00  0.00000000E+00
  0.00000000E+00  0.00000000E+00  0.00000000E+00  0.00000000E+00  0.00000000E+00
  9.21062656E-01  0.00000000E+00  0.00000000E+00  0.00000000E+00  1.47100441E-01
  0.00000000E+00  0.00000000E+00  0.00000000E+00 -1.19133214E-02  0.00000000E+00
  0.00000000E+00  0.00000000E+00  0.00000000E+00  0.00000000E+00  0.00000000E+00
  0.00000000E+00  0.00000000E+00  0.00000000E+00  9.21062656E-01  0.00000000E+00
  0.00000000E+00  0.00000000E+00  1.47100441E-01  0.00000000E+00  0.00000000E+00
  0.00000000E+00 -1.19133214E-02  0.00000000E+00  0.00000000E+00  0.00000000E+00
  0.00000000E+00  0.00000000E+00  0.00000000E+00  0.00000000E+00  0.00000000E+00
  5.88141374E-02 -6.69627857E-01  0.00000000E+00  0.00000000E+00  0.00000000E+00
  1.95061031E-01  0.00000000E+00  0.00000000E+00  0.00000000E+00  9.86457605E-01
  0.00000000E+00  0.00000000E+00  0.00000000E+00 -1.22566067E-02 -1.22566067E-02
 -1.78943885E-02  0.00000000E+00  0.00000000E+00  0.00000000E+00  0.00000000E+00
  0.00000000E+00  0.00000000E+00  0.00000000E+00 -4.95203611E-01  0.00000000E+00
  0.00000000E+00  0.00000000E+00  6.03886998E-01  0.00000000E+00  0.00000000E+00
  0.00000000E+00  5.69176232E-01  0.00000000E+00  0.00000000E+00  0.00000000E+00
  0.00000000E+00  0.00000000E+00  0.00000000E+00  0.00000000E+00  0.00000000E+00
 -4.97454970E-01  0.00000000E+00  0.00000000E+00  0.00000000E+00  5.87838406E-01
  0.00000000E+00  0.00000000E+00  0.00000000E+00  5.82111536E-01  0.00000000E+00
  0.00000000E+00  0.00000000E+00  0.00000000E+00  0.00000000E+00  0.00000000E+00
  0.00000000E+00  0.00000000E+00  0.00000000E+00  0.00000000E+00  0.00000000E+00
 -4.97454970E-01  0.00000000E+00  0.00000000E+00  0.00000000E+00  5.87838406E-01
  0.00000000E+00  0.00000000E+00  0.00000000E+00  5.82111536E-01  0.00000000E+00
  0.00000000E+00  0.00000000E+00  0.00000000E+00  0.00000000E+00  0.00000000E+00
  0.00000000E+00  0.00000000E+00  0.00000000E+00  0.00000000E+00  0.00000000E+00
 -5.70852874E-01  0.00000000E+00  0.00000000E+00  0.00000000E+00  1.46606835E+00
  0.00000000E+00  0.00000000E+00  0.00000000E+00 -1.27508135E+00  0.00000000E+00
  0.00000000E+00  0.00000000E+00  0.00000000E+00  0.00000000E+00  0.00000000E+00
  0.00000000E+00  0.00000000E+00  0.00000000E+00 -5.81916222E-01  0.00000000E+00
  0.00000000E+00  0.00000000E+00  1.47117139E+00  0.00000000E+00  0.00000000E+00
  0.00000000E+00 -1.26920151E+00  0.00000000E+00  0.00000000E+00  0.00000000E+00
  0.00000000E+00  0.00000000E+00  0.00000000E+00  0.00000000E+00  0.00000000E+00
  0.00000000E+00 -5.81916222E-01  0.00000000E+00  0.00000000E+00  0.00000000E+00
  1.47117139E+00  0.00000000E+00  0.00000000E+00  0.00000000E+00 -1.26920151E+00
  0.00000000E+00  0.00000000E+00  0.00000000E+00  0.00000000E+00  0.00000000E+00
  0.00000000E+00  0.00000000E+00  0.00000000E+00 -2.90083363E-02 -1.46929277E+00
  0.00000000E+00  0.00000000E+00  0.00000000E+00  3.09893958E+00  0.00000000E+00
  0.00000000E+00  0.00000000E+00 -1.68067593E+00  0.00000000E+00  0.00000000E+00
  0.00000000E+00 -1.43381013E-01 -1.43381013E-01 -2.78235266E-01  0.00000000E+00
  0.00000000E+00  0.00000000E+00  0.00000000E+00  0.00000000E+00  0.00000000E+00
  0.00000000E+00  0.00000000E+00  0.00000000E+00  0.00000000E+00  0.00000000E+00
  0.00000000E+00  0.00000000E+00  0.00000000E+00  0.00000000E+00  0.00000000E+00
  0.00000000E+00  0.00000000E+00  0.00000000E+00  0.00000000E+00  0.00000000E+00
  1.00000000E+00  0.00000000E+00  0.00000000E+00  0.00000000E+00  0.00000000E+00
  0.00000000E+00  0.00000000E+00  0.00000000E+00  0.00000000E+00  0.00000000E+00
  0.00000000E+00  0.00000000E+00  0.00000000E+00  0.00000000E+00  0.00000000E+00
  0.00000000E+00  0.00000000E+00  0.00000000E+00  1.00000000E+00  0.00000000E+00
 -1.52679551E-03 -1.38864506E-01  0.00000000E+00  0.00000000E+00  0.00000000E+00
  2.80559983E-01  0.00000000E+00  0.00000000E+00  0.00000000E+00 -1.48156949E-01
  0.00000000E+00  0.00000000E+00  0.00000000E+00 -5.15596159E-01 -5.15596159E-01
  9.78302844E-01  0.00000000E+00  0.00000000E+00  0.00000000E+00 -6.45854180E-16
  1.11885517E-14  0.00000000E+00  0.00000000E+00  0.00000000E+00 -1.72142982E-14
  0.00000000E+00  0.00000000E+00  0.00000000E+00  1.27440312E-14  0.00000000E+00
  0.00000000E+00  0.00000000E+00  8.66025404E-01 -8.66025404E-01 -1.16393696E-13
  0.00000000E+00  0.00000000E+00  0.00000000E+00  0.00000000E+00  0.00000000E+00
  0.00000000E+00  0.00000000E+00  0.00000000E+00  0.00000000E+00  0.00000000E+00
  0.00000000E+00  0.00000000E+00  0.00000000E+00  0.00000000E+00  0.00000000E+00
  0.00000000E+00  0.00000000E+00  0.00000000E+00  0.00000000E+00  1.00000000E+00
  0.00000000E+00  0.00000000E+00 -4.75841094E-01 -1.36281308E-01  0.00000000E+00
  0.00000000E+00  0.00000000E+00  4.47252385E+00  0.00000000E+00  0.00000000E+00
  0.00000000E+00 -1.08657837E+00  0.00000000E+00  0.00000000E+00  0.00000000E+00
 -1.65799646E+00 -1.65799646E+00 -1.65859408E+00  0.00000000E+00  0.00000000E+00
  0.00000000E+00
Beta MO coefficients                       R   N=         361
  9.93811479E-01  2.31367325E-02  0.00000000E+00  0.00000000E+00  0.00000000E+00
  8.14160912E-03  0.00000000E+00  0.00000000E+00  0.00000000E+00 -1.32315796E-03
  0.00000000E+00  0.00000000E+00  0.00000000E+00 -6.35930317E-03 -6.35930317E-03
 -6.70900250E-03  0.00000000E+00  0.00000000E+00  0.00000000E+00 -2.54283606E-01
  7.71730013E-01  0.00000000E+00  0.00000000E+00  0.00000000E+00  3.80313702E-01
  0.00000000E+00  0.00000000E+00  0.00000000E+00 -5.84330311E-02  0.00000000E+00
  0.00000000E+00  0.00000000E+00 -6.35600001E-03 -6.35600001E-03 -3.67391958E-02
  0.00000000E+00  0.00000000E+00  0.00000000E+00  0.00000000E+00  0.00000000E+00
  0.00000000E+00  9.18244029E-01  0.00000000E+00  0.00000000E+00  0.00000000E+00
  1.51866808E-01  0.00000000E+00  0.00000000E+00  0.00000000E+00 -1.22205083E-02
  0.00000000E+00  0.00000000E+00  0.00000000E+00  0.00000000E+00  0.00000000E+00
  0.00000000E+00  0.00000000E+00  0.00000000E+00  0.00000000E+00  9.18244029E-01
  0.00000000E+00  0.00000000E+00  0.00000000E+00  1.51866808E-01  0.00000000E+00
  0.00000000E+00  0.00000000E+00 -1.22205083E-02  0.00000000E+00  0.00000000E+00
  0.00000000E+00  0.00000000E+00  0.00000000E+00  0.00000000E+00  0.00000000E+00
  0.00000000E+00  0.00000000E+00  0.00000000E+00  0.00000000E+00  0.00000000E+00
  9.06360861E-01  0.00000000E+00  0.00000000E+00  0.00000000E+00  1.72051362E-01
  0.00000000E+00  0.00000000E+00  0.00000000E+00 -1.44107729E-02  0.00000000E+00
  0.00000000E+00  0.00000000E+00  0.00000000E+00  0.00000000E+00  0.00000000E+00
  5.94296279E-02 -6.46493430E-01  0.00000000E+00  0.00000000E+00  0.00000000E+00
  1.46004811E-01  0.00000000E+00  0.00000000E+00  0.00000000E+00  1.01685805E+00
  0.00000000E+00  0.00000000E+00  0.00000000E+00 -1.66142239E-02 -1.66142239E-02
 -1.66400015E-02  0.00000000E+00  0.00000000E+00  0.00000000E+00  0.00000000E+00
  0.00000000E+00 -4.93314907E-01  0.00000000E+00  0.00000000E+00  0.00000000E+00
  5.68836478E-01  0.00000000E+00  0.00000000E+00  0.00000000E+00  5.98013557E-01
  0.00000000E+00  0.00000000E+00  0.00000000E+00  0.00000000E+00  0.00000000E+00
  0.00000000E+00  0.00000000E+00  0.00000000E+00  0.00000000E+00  0.00000000E+00
  0.00000000E+00 -4.93314907E-01  0.00000000E+00  0.00000000E+00  0.00000000E+00
  5.68836478E-01  0.00000000E+00  0.00000000E+00  0.00000000E+00  5.98013557E-01
  0.00000000E+00  0.00000000E+00  0.00000000E+00  0.00000000E+00  0.00000000E+00
  0.00000000E+00  0.00000000E+00  0.00000000E+00  0.00000000E+00  0.00000000E+00
  0.00000000E+00 -4.82867248E-01  0.00000000E+00  0.00000000E+00  0.00000000E+00
  5.09922762E-01  0.00000000E+00  0.00000000E+00  0.00000000E+00  6.45822536E-01
  0.00000000E+00  0.00000000E+00  0.00000000E+00  0.00000000E+00  0.00000000E+00
  0.00000000E+00  0.00000000E+00  0.00000000E+00  0.00000000E+00 -5.89841216E-01
  0.00000000E+00  0.00000000E+00  0.00000000E+00  1.47814050E+00  0.00000000E+00
  0.00000000E+00  0.00000000E+00 -1.26178393E+00  0.00000000E+00  0.00000000E+00
  0.00000000E+00  0.00000000E+00  0.00000000E+00  0.00000000E+00  0.00000000E+00
  0.00000000E+00  0.00000000E+00 -5.89841216E-01  0.00000000E+00  0.00000000E+00
  0.00000000E+00  1.47814050E+00  0.00000000E+00  0.00000000E+00  0.00000000E+00
 -1.26178393E+00  0.00000000E+00  0.00000000E+00  0.00000000E+00  0.00000000E+00
  0.00000000E+00  0.00000000E+00  0.00000000E+00  0.00000000E+00  0.00000000E+00
  0.00000000E+00  0.00000000E+00  0.00000000E+00 -6.16273937E-01  0.00000000E+00
  0.00000000E+00  0.00000000E+00  1.49730254E+00  0.00000000E+00  0.00000000E+00
  0.00000000E+00 -1.23797165E+00  0.00000000E+00  0.00000000E+00  0.00000000E+00
  0.00000000E+00  0.00000000E+00  0.00000000E+00 -3.10287968E-02 -1.49537502E+00
  0.00000000E+00  0.00000000E+00  0.00000000E+00  3.15569073E+00  0.00000000E+00
  0.00000000E+00  0.00000000E+00 -1.67638166E+00  0.00000000E+00  0.00000000E+00
  0.00000000E+00 -1.89440901E-01 -1.89440901E-01 -2.39075622E-01  0.00000000E+00
  0.00000000E+00  0.00000000E+00  0.00000000E+00  0.00000000E+00  0.00000000E+00
  0.00000000E+00  0.00000000E+00  0.00000000E+00  0.00000000E+00  0.00000000E+00
  0.00000000E+00  0.00000000E+00  0.00000000E+00  0.00000000E+00  0.00000000E+00
  0.00000000E+00  0.00000000E+00  0.00000000E+00  1.00000000E+00  0.00000000E+00
  0.00000000E+00  4.55967398E-16  5.19795531E-14  0.00000000E+00  0.00000000E+00
  0.00000000E+00 -1.04488688E-13  0.00000000E+00  0.00000000E+00  0.00000000E+00
  5.81119319E-14  0.00000000E+00  0.00000000E+00  0.00000000E+00  8.66025404E-01
 -8.66025404E-01  7.44335030E-15  0.00000000E+00  0.00000000E+00  0.00000000E+00
  0.00000000E+00  0.00000000E+00  0.00000000E+00  0.00000000E+00  0.00000000E+00
  0.00000000E+00  0.00000000E+00  0.00000000E+00  0.00000000E+00  0.00000000E+00
  0.00000000E+00  0.00000000E+00  0.00000000E+00  0.00000000E+00  0.00000000E+00
  0.00000000E+00  0.00000000E+00  0.00000000E+00  1.00000000E+00  0.00000000E+00
  0.00000000E+00  0.00000000E+00  0.00000000E+00  0.00000000E+00  0.00000000E+00
  0.00000000E+00  0.00000000E+00  0.00000000E+00  0.00000000E+00  0.00000000E+00
  0.00000000E+00  0.00000000E+00  0.00000000E+00  0.00000000E+00  0.00000000E+00
  0.00000000E+00  1.00000000E+00  0.00000000E+00 -9.98940242E-03 -3.48724455E-02
  0.00000000E+00  0.00000000E+00  0.00000000E+00  1.49922448E-01  0.00000000E+00
  0.00000000E+00  0.00000000E+00 -6.57962845E-02  0.00000000E+00  0.00000000E+00
  0.00000000E+00 -5.20826724E-01 -5.20826724E-01  9.77989849E-01  0.00000000E+00
  0.00000000E+00  0.00000000E+00 -4.75727515E-01 -1.16583132E-01  0.00000000E+00
  0.00000000E+00  0.00000000E+00  4.43985483E+00  0.00000000E+00  0.00000000E+00
  0.00000000E+00 -1.07319792E+00  0.00000000E+00  0.00000000E+00  0.00000000E+00
 -1.65181453E+00 -1.65181453E+00 -1.66454302E+00  0.00000000E+00  0.00000000E+00
  0.00000000E+00
Orthonormal basis                          R   N=         361
  4.59663719E-02  2.16427895E-01  0.00000000E+00  0.00000000E+00  0.00000000E+00
  2.61300377E-01  0.00000000E+00  0.00000000E+00  0.00000000E+00  2.02493944E-01
  0.00000000E+00  0.00000000E+00  0.00000000E+00  1.88153971E-01  1.88153971E-01
  1.88153971E-01  0.00000000E+00  0.00000000E+00  0.00000000E+00  9.50255755E-01
  1.80379177E-01  0.00000000E+00  0.00000000E+00  0.00000000E+00 -1.50269768E-02
  0.00000000E+00  0.00000000E+00  0.00000000E+00 -1.25524514E-01  0.00000000E+00
  0.00000000E+00  0.00000000E+00 -9.45579942E-02 -9.45579942E-02 -9.45579942E-02
  0.00000000E+00  0.00000000E+00  0.00000000E+00  2.91092879E-17  1.03810830E-16
  0.00000000E+00  0.00000000E+00  0.00000000E+00 -3.40718639E-16  0.00000000E+00
  0.00000000E+00  0.00000000E+00  1.34861170E-17  0.00000000E+00  0.00000000E+00
  0.00000000E+00  8.78439709E-01 -8.53052863E-01 -2.53868459E-02  0.00000000E+00
  0.00000000E+00  0.00000000E+00 -8.44869698E-16  1.67731823E-15  0.00000000E+00
  0.00000000E+00  0.00000000E+00  1.79108161E-15  0.00000000E+00  0.00000000E+00
  0.00000000E+00 -4.38036148E-15  0.00000000E+00  0.00000000E+00  0.00000000E+00
 -4.77853198E-01 -5.21824505E-01  9.99677702E-01  0.00000000E+00  0.00000000E+00
  0.00000000E+00  2.25073338E-01 -7.19335415E-01  0.00000000E+00  0.00000000E+00
  0.00000000E+00  1.12308346E-01  0.00000000E+00  0.00000000E+00  0.00000000E+00
  1.01615881E+00  0.00000000E+00  0.00000000E+00  0.00000000E+00 -1.59043103E-01
 -1.59043103E-01 -1.59043103E-01  0.00000000E+00  0.00000000E+00  0.00000000E+00
 -3.73766816E-01  1.37221686E+00  0.00000000E+00  0.00000000E+00  0.00000000E+00
 -1.32238983E-01  0.00000000E+00  0.00000000E+00  0.00000000E+00  7.40113812E-01
  0.00000000E+00  0.00000000E+00  0.00000000E+00 -6.99993679E-01 -6.99993679E-01
 -6.99993679E-01  0.00000000E+00  0.00000000E+00  0.00000000E+00 -4.33328958E-01
 -8.86120876E-01  0.00000000E+00  0.00000000E+00  0.00000000E+00  5.45532674E+00
  0.00000000E+00  0.00000000E+00  0.00000000E+00 -1.83484263E+00  0.00000000E+00
  0.00000000E+00  0.00000000E+00 -1.49210169E+00 -1.49210169E+00 -1.49210169E+00
  0.00000000E+00  0.00000000E+00  0.00000000E+00  0.00000000E+00  0.00000000E+00
  0.00000000E+00  0.00000000E+00  0.00000000E+00  0.00000000E+00  0.00000000E+00
  0.00000000E+00  0.00000000E+00  0.00000000E+00  0.00000000E+00  0.00000000E+00
  0.00000000E+00  0.00000000E+00  0.00000000E+00  0.00000000E+00  1.00000000E+00
  0.00000000E+00  0.00000000E+00  0.00000000E+00  0.00000000E+00  0.00000000E+00
  0.00000000E+00  0.00000000E+00  0.00000000E+00  0.00000000E+00  0.00000000E+00
  0.00000000E+00  0.00000000E+00  0.00000000E+00  0.00000000E+00  0.00000000E+00
  0.00000000E+00  0.00000000E+00  0.00000000E+00  0.00000000E+00  1.00000000E+00
  0.00000000E+00  0.00000000E+00  0.00000000E+00  0.00000000E+00  0.00000000E+00
  0.00000000E+00  0.00000000E+00  0.00000000E+00  0.00000000E+00  0.00000000E+00
  0.00000000E+00  0.00000000E+00  0.00000000E+00  0.00000000E+00  0.00000000E+00
  0.00000000E+00  0.00000000E+00  0.00000000E+00  0.00000000E+00  1.00000000E+00
  0.00000000E+00  0.00000000E+00  0.00000000E+00  0.00000000E+00  3.38496871E-01
  0.00000000E+00  0.00000000E+00  0.00000000E+00  4.84301624E-01  0.00000000E+00
  0.00000000E+00  0.00000000E+00  4.13451438E-01  0.00000000E+00  0.00000000E+00
  0.00000000E+00  0.00000000E+00  0.00000000E+00  0.00000000E+00  0.00000000E+00
  0.00000000E+00  0.00000000E+00  0.00000000E+00  8.79966812E-01  0.00000000E+00
  0.00000000E+00  0.00000000E+00 -6.66489147E-02  0.00000000E+00  0.00000000E+00
  0.00000000E+00 -6.42367665E-01  0.00000000E+00  0.00000000E+00  0.00000000E+00
  0.00000000E+00  0.00000000E+00  0.00000000E+00  0.00000000E+00  0.00000000E+00
  0.00000000E+00  0.00000000E+00 -7.38595040E-01  0.00000000E+00  0.00000000E+00
  0.00000000E+00  1.51411613E+00  0.00000000E+00  0.00000000E+00  0.00000000E+00
 -1.16888405E+00  0.00000000E+00  0.00000000E+00  0.00000000E+00  0.00000000E+00
  0.00000000E+00  0.00000000E+00  0.00000000E+00  0.00000000E+00  0.00000000E+00
  3.38496871E-01  0.00000000E+00  0.00000000E+00  0.00000000E+00  4.84301624E-01
  0.00000000E+00  0.00000000E+00  0.00000000E+00  4.13451438E-01  0.00000000E+00
  0.00000000E+00  0.00000000E+00  0.00000000E+00  0.00000000E+00  0.00000000E+00
  0.00000000E+00  0.00000000E+00  0.00000000E+00  0.00000000E+00  8.79966812E-01
  0.00000000E+00  0.00000000E+00  0.00000000E+00 -6.66489147E-02  0.00000000E+00
  0.00000000E+00  0.00000000E+00 -6.42367665E-01  0.00000000E+00  0.00000000E+00
  0.00000000E+00  0.00000000E+00  0.00000000E+00  0.00000000E+00  0.00000000E+00
  0.00000000E+00  0.00000000E+00  0.00000000E+00 -7.38595040E-01  0.00000000E+00
  0.00000000E+00  0.00000000E+00  1.51411613E+00  0.00000000E+00  0.00000000E+00
  0.00000000E+00 -1.16888405E+00  0.00000000E+00  0.00000000E+00  0.00000000E+00
  0.00000000E+00  0.00000000E+00  0.00000000E+00  0.00000000E+00  0.00000000E+00
  0.00000000E+00  3.38496871E-01  0.00000000E+00  0.00000000E+00  0.00000000E+00
  4.84301624E-01  0.00000000E+00  0.00000000E+00  0.00000000E+00  4.13451438E-01
  0.00000000E+00  0.00000000E+00  0.00000000E+00  0.00000000E+00  0.00000000E+00
  0.00000000E+00  0.00000000E+00  0.00000000E+00  0.00000000E+00  0.00000000E+00
  8.79966812E-01  0.00000000E+00  0.00000000E+00  0.00000000E+00 -6.66489147E-02
  0.00000000E+00  0.00000000E+00  0.00000000E+00 -6.42367665E-01  0.00000000E+00
  0.00000000E+00  0.00000000E+00  0.00000000E+00  0.00000000E+00  0.00000000E+00
  0.00000000E+00  0.00000000E+00  0.00000000E+00  0.00000000E+00 -7.38595040E-01
  0.00000000E+00  0.00000000E+00  0.00000000E+00  1.51411613E+00  0.00000000E+00
  0.00000000E+00  0.00000000E+00 -1.16888405E+00  0.00000000E+00  0.00000000E+00
  0.00000000E+00  0.00000000E+00  0.00000000E+00  0.00000000E+00  0.00000000E+00
  0.00000000E+00
Total SCF Density                          R   N=         190
  2.10482628E+00 -3.50998916E-01  1.21603429E+00  0.00000000E+00  0.00000000E+00
  1.61851214E-33  0.00000000E+00  0.00000000E+00  0.00000000E+00  1.61851214E-33
  0.00000000E+00  0.00000000E+00  1.32161546E-17 -1.32161546E-17  8.63344734E-01
 -1.73069913E-01  5.83552217E-01  0.00000000E+00  0.00000000E+00  0.00000000E+00
  2.80239797E-01  0.00000000E+00  0.00000000E+00  2.30444535E-34  0.00000000E+00
  1.88172243E-18  0.00000000E+00  3.28108036E-35  0.00000000E+00  0.00000000E+00
  0.00000000E+00  2.30444535E-34 -1.88172243E-18  0.00000000E+00  0.00000000E+00
  3.28108036E-35  0.00000000E+00  0.00000000E+00  1.88172243E-18 -1.88172243E-18
  1.22923438E-01  0.00000000E+00  2.67920543E-19 -2.67920543E-19  1.75018981E-02
  2.67057205E-02 -9.09113908E-02  0.00000000E+00  0.00000000E+00  0.00000000E+00
 -4.36421892E-02  0.00000000E+00  0.00000000E+00  0.00000000E+00  6.79780281E-03
  0.00000000E+00  0.00000000E+00 -1.50050464E-35  0.00000000E+00 -1.22525502E-19
  0.00000000E+00 -2.13642571E-36  0.00000000E+00 -1.74452398E-20  0.00000000E+00
  1.39110119E-37  0.00000000E+00  0.00000000E+00  0.00000000E+00 -1.50050464E-35
  1.22525502E-19  0.00000000E+00  0.00000000E+00 -2.13642571E-36  1.74452398E-20
  0.00000000E+00  0.00000000E+00  1.39110119E-37  0.00000000E+00  0.00000000E+00
 -1.22525502E-19  1.22525502E-19 -8.00397319E-03  0.00000000E+00 -1.74452398E-20
  1.74452398E-20 -1.13960955E-03  0.00000000E+00  1.13592033E-21 -1.13592033E-21
  7.42039469E-05 -6.66877055E-03 -2.17700924E-02  0.00000000E+00  0.00000000E+00
  0.00000000E+00 -1.02768431E-02  0.00000000E+00  0.00000000E+00  0.00000000E+00
  1.61431539E-03  0.00000000E+00  0.00000000E+00  0.00000000E+00  5.77281779E-04
 -6.66877055E-03 -2.17700924E-02  0.00000000E+00  0.00000000E+00  0.00000000E+00
 -1.02768431E-02  0.00000000E+00  0.00000000E+00  0.00000000E+00  1.61431539E-03
  0.00000000E+00  0.00000000E+00  0.00000000E+00  5.77281779E-04  5.77281779E-04
 -8.74166880E-04 -3.97732993E-02  0.00000000E+00  0.00000000E+00  0.00000000E+00
 -1.92853544E-02  0.00000000E+00  0.00000000E+00  0.00000000E+00  2.98745417E-03
  0.00000000E+00  0.00000000E+00  0.00000000E+00  6.25719855E-04  6.25719855E-04
  1.64537586E-03 -3.58668911E-32  3.44978197E-32  0.00000000E+00  0.00000000E+00
  0.00000000E+00  1.65053026E-32  0.00000000E+00  0.00000000E+00  0.00000000E+00
 -2.57830200E-33  0.00000000E+00  0.00000000E+00  0.00000000E+00 -5.47281085E-34
 -5.47715435E-34 -8.27002528E-34  6.14214568E-53  1.02426886E-19 -3.18229259E-19