fubar
SP        UPBEPBE                                                     6-31+G(d,p)
Number of atoms                            I                1
Info1-9                                    I   N=           9
          11          10           0           0           0         110
           1          18         902
Full Title                                 C   N=           1
fubar
Route                                      C   N=           3
#PBEPBE/6-31+g** scf=tight
Charge                                     I               -1
Multiplicity                               I                3
Number of electrons                        I                6
Number of alpha electrons                  I                4
Number of beta electrons                   I                2
Number of basis functions                  I               19
Number of independent functions            I               19
Number of point charges in /Mol/           I                0
Number of translation vectors              I                0
Atomic numbers                             I   N=           1
           5
Nuclear charges                            R   N=           1
  5.00000000E+00
Current cartesian coordinates              R   N=           3
  0.00000000E+00  0.00000000E+00  0.00000000E+00
Number of symbols in /Mol/                 I                0
Int Atom Types                             I   N=           1
           0
Force Field                                I                0
Atom Types                                 C   N=           1

MM charges                                 R   N=           1
  0.00000000E+00
Integer atomic weights                     I   N=           1
          11
Real atomic weights                        R   N=           1
  1.10093053E+01
Atom fragment info                         I   N=           1
           0
Atom residue num                           I   N=           1
           0
Nuclear spins                              I   N=           1
           3
Nuclear ZEff                               R   N=           1
 -2.75000000E+00
Nuclear ZNuc                               R   N=           1
  5.00000000E+00
Nuclear QMom                               R   N=           1
  4.05900000E+00
Nuclear GFac                               R   N=           1
  2.68863700E+00
MicOpt                                     I   N=           1
          -1
Number of residues                         I                0
Number of secondary structures             I                0
SymInf integers                            I   N=          26
           1           8           1           1           1           1
          -1          -1          -1           1          -1          -1
          -1           1          -1          -1          -1          -1
           1           1           1          -1           1           1
           1          -1
RotTr to input orientation                 R   N=          12
  0.00000000E+00  0.00000000E+00 -1.00000000E+00  0.00000000E+00  1.00000000E+00
  0.00000000E+00  1.00000000E+00  0.00000000E+00  0.00000000E+00  0.00000000E+00
  0.00000000E+00  0.00000000E+00
Number of contracted shells                I                5
Number of primitive shells                 I               12
Pure/Cartesian d shells                    I                1
Pure/Cartesian f shells                    I                0
Highest angular momentum                   I                2
Largest degree of contraction              I                6
Shell types                                I   N=           5
           0          -1          -1          -1           2
Number of primitives per shell             I   N=           5
           6           3           1           1           1
Shell to atom map                          I   N=           5
           1           1           1           1           1
Primitive exponents                        R   N=          12
  2.06888225E+03  3.10649570E+02  7.06830330E+01  1.98610803E+01  6.29930484E+00
  2.12702697E+00  4.72797107E+00  1.19033774E+00  3.59411683E-01  1.26751247E-01
  3.15000000E-02  6.00000000E-01
Contraction coefficients                   R   N=          12
  1.86627459E-03  1.42514817E-02  6.95516185E-02  2.32572933E-01  4.67078712E-01
  3.63431440E-01 -1.30393797E-01 -1.30788951E-01  1.13094448E+00  1.00000000E+00
  1.00000000E+00  1.00000000E+00
P(S=P) Contraction coefficients            R   N=          12
  0.00000000E+00  0.00000000E+00  0.00000000E+00  0.00000000E+00  0.00000000E+00
  0.00000000E+00  7.45975799E-02  3.07846677E-01  7.43456834E-01  1.00000000E+00
  1.00000000E+00  0.00000000E+00
Coordinates of each shell                  R   N=          15
  0.00000000E+00  0.00000000E+00  0.00000000E+00  0.00000000E+00  0.00000000E+00
  0.00000000E+00  0.00000000E+00  0.00000000E+00  0.00000000E+00  0.00000000E+00
  0.00000000E+00  0.00000000E+00  0.00000000E+00  0.00000000E+00  0.00000000E+00
Num ILSW                                   I              100
ILSW                                       I   N=         100
           1           1           0           0           2           0
           0           0           0           0        1009          -1
           5           0           0           0           0           0
           0           0           0           0           0           0
           1           0           0           0           0           0
           0           0      100000           0          -1           0
           0           0           0           0           0           0
           0           0           0           1           0           0
           0 -2000000000           1           0           0           0
           0           1           4          52           0           0
           0           0           0           0           0           0
           0           0           0           1           0           1
           0           0           0           0           0           0
           0           0           0           0           0           0
           0           0           0           0           0           0
           0           0           0           0           0           0
           0           0           0           0
Num RLSW                                   I               52
RLSW                                       R   N=          52
  1.00000000E+00  1.00000000E+00  1.00000000E+00  1.00000000E+00  0.00000000E+00
  0.00000000E+00  0.00000000E+00  1.00000000E+00  0.00000000E+00  0.00000000E+00
  0.00000000E+00  0.00000000E+00  1.00000000E+00  0.00000000E+00  0.00000000E+00
  0.00000000E+00  0.00000000E+00  1.00000000E+00  0.00000000E+00  0.00000000E+00
  0.00000000E+00  0.00000000E+00  1.00000000E+00  0.00000000E+00  0.00000000E+00
  0.00000000E+00  0.00000000E+00  1.00000000E+00  0.00000000E+00  0.00000000E+00
  0.00000000E+00  0.00000000E+00  1.00000000E+00  0.00000000E+00  0.00000000E+00
  0.00000000E+00  0.00000000E+00  0.00000000E+00  1.00000000E+00  1.00000000E+00
  0.00000000E+00  1.00000000E+00  0.00000000E+00  0.00000000E+00  0.00000000E+00
  0.00000000E+00  0.00000000E+00  0.00000000E+00  0.00000000E+00  0.00000000E+00
  0.00000000E+00  0.00000000E+00
MxBond                                     I                1
NBond                                      I   N=           1
           0
IBond                                      I   N=           1
           0
RBond                                      R   N=           1
  0.00000000E+00
Virial Ratio                               R      2.007678907198362E+00
SCF Energy                                 R     -2.462653333413998E+01
Total Energy                               R     -2.462653333413998E+01
S**2                                       R      2.001532927225817E+00
S**2 after annihilation                    R      2.000000001423696E+00
RMS Density                                R      5.360442349349681E-09
Job Status                                 I                1
Nuclear derivative order                   I                0
External E-field                           R   N=          35
  0.00000000E+00  0.00000000E+00  0.00000000E+00  0.00000000E+00  0.00000000E+00
  0.00000000E+00  0.00000000E+00  0.00000000E+00  0.00000000E+00  0.00000000E+00
  0.00000000E+00  0.00000000E+00  0.00000000E+00  0.00000000E+00  0.00000000E+00
  0.00000000E+00  0.00000000E+00  0.00000000E+00  0.00000000E+00  0.00000000E+00
  0.00000000E+00  0.00000000E+00  0.00000000E+00  0.00000000E+00  0.00000000E+00
  0.00000000E+00  0.00000000E+00  0.00000000E+00  0.00000000E+00  0.00000000E+00
  0.00000000E+00  0.00000000E+00  0.00000000E+00  0.00000000E+00  0.00000000E+00
IOpCl                                      I                1
IROHF                                      I                0
Alpha Orbital Energies                     R   N=          19
 -6.36403970E+00 -1.17684910E-01  7.60998222E-02  7.60998222E-02  8.77234494E-02
  1.55557908E-01  1.80992666E-01  1.80992666E-01  1.90335521E-01  6.59115924E-01
  6.59115924E-01  6.74069996E-01  7.73262222E-01  1.41700262E+00  1.41700262E+00
  1.42298729E+00  1.42298729E+00  1.43579063E+00  3.46361324E+00
Beta Orbital Energies                      R   N=          19
 -6.35241552E+00 -6.36244946E-02  1.06952492E-01  1.29471173E-01  1.29471173E-01
  1.83309305E-01  2.08720784E-01  2.27130395E-01  2.27130395E-01  6.88979293E-01
  7.14463373E-01  7.14463373E-01  8.19760659E-01  1.46184642E+00  1.47348265E+00
  1.47348265E+00  1.50614161E+00  1.50614161E+00  3.50048050E+00
Alpha MO coefficients                      R   N=         361
  9.92091922E-01  6.05177041E-02  0.00000000E+00  0.00000000E+00  0.00000000E+00
 -1.51370472E-02  0.00000000E+00  0.00000000E+00  0.00000000E+00  3.32433314E-03
  0.00000000E+00  0.00000000E+00  0.00000000E+00 -1.17150991E-02 -1.12940144E-02
 -1.12940144E-02  0.00000000E+00  0.00000000E+00  0.00000000E+00 -2.28463985E-01
  3.77276832E-01  0.00000000E+00  0.00000000E+00  0.00000000E+00  5.71304259E-01
  0.00000000E+00  0.00000000E+00  0.00000000E+00  1.42483816E-01  0.00000000E+00
  0.00000000E+00  0.00000000E+00  2.97752201E-04  9.93753922E-03  9.93753922E-03
  0.00000000E+00  0.00000000E+00  0.00000000E+00  0.00000000E+00  0.00000000E+00
  0.00000000E+00  0.00000000E+00  4.63348813E-01  0.00000000E+00  0.00000000E+00
  0.00000000E+00  3.22649439E-01  0.00000000E+00  0.00000000E+00  0.00000000E+00
  4.84942708E-01  0.00000000E+00  0.00000000E+00  0.00000000E+00  0.00000000E+00
  0.00000000E+00  0.00000000E+00  0.00000000E+00  0.00000000E+00  0.00000000E+00
  4.63348813E-01  0.00000000E+00  0.00000000E+00  0.00000000E+00  3.22649439E-01
  0.00000000E+00  0.00000000E+00  0.00000000E+00  4.84942708E-01  0.00000000E+00
  0.00000000E+00  0.00000000E+00  0.00000000E+00  0.00000000E+00  0.00000000E+00
  0.00000000E+00  0.00000000E+00  0.00000000E+00  4.46042992E-01  0.00000000E+00
  0.00000000E+00  0.00000000E+00  3.14781739E-01  0.00000000E+00  0.00000000E+00
  0.00000000E+00  5.10983730E-01  0.00000000E+00  0.00000000E+00  0.00000000E+00
  0.00000000E+00  0.00000000E+00  0.00000000E+00  0.00000000E+00  0.00000000E+00
  1.12472471E-01 -7.14430419E-02  0.00000000E+00  0.00000000E+00  0.00000000E+00
 -9.92545496E-01  0.00000000E+00  0.00000000E+00  0.00000000E+00  1.41905200E+00
  0.00000000E+00  0.00000000E+00  0.00000000E+00  1.57139516E-02  1.17466244E-02
  1.17466244E-02  0.00000000E+00  0.00000000E+00  0.00000000E+00  0.00000000E+00
  0.00000000E+00  0.00000000E+00  0.00000000E+00 -3.57137907E-01  0.00000000E+00
  0.00000000E+00  0.00000000E+00 -5.88279314E-01  0.00000000E+00  0.00000000E+00
  0.00000000E+00  1.05109551E+00  0.00000000E+00  0.00000000E+00  0.00000000E+00
  0.00000000E+00  0.00000000E+00  0.00000000E+00  0.00000000E+00  0.00000000E+00
  0.00000000E+00 -3.57137907E-01  0.00000000E+00  0.00000000E+00  0.00000000E+00
 -5.88279314E-01  0.00000000E+00  0.00000000E+00  0.00000000E+00  1.05109551E+00
  0.00000000E+00  0.00000000E+00  0.00000000E+00  0.00000000E+00  0.00000000E+00
  0.00000000E+00  0.00000000E+00  0.00000000E+00  0.00000000E+00 -3.59033781E-01
  0.00000000E+00  0.00000000E+00  0.00000000E+00 -6.10102007E-01  0.00000000E+00
  0.00000000E+00  0.00000000E+00  1.04178005E+00  0.00000000E+00  0.00000000E+00
  0.00000000E+00  0.00000000E+00  0.00000000E+00  0.00000000E+00  0.00000000E+00
  0.00000000E+00  0.00000000E+00  0.00000000E+00  0.00000000E+00 -1.19366588E+00
  0.00000000E+00  0.00000000E+00  0.00000000E+00  1.44267223E+00  0.00000000E+00
  0.00000000E+00  0.00000000E+00 -5.09119210E-01  0.00000000E+00  0.00000000E+00
  0.00000000E+00  0.00000000E+00  0.00000000E+00  0.00000000E+00  0.00000000E+00
  0.00000000E+00  0.00000000E+00  0.00000000E+00  0.00000000E+00 -1.19366588E+00
  0.00000000E+00  0.00000000E+00  0.00000000E+00  1.44267223E+00  0.00000000E+00
  0.00000000E+00  0.00000000E+00 -5.09119210E-01  0.00000000E+00  0.00000000E+00
  0.00000000E+00  0.00000000E+00  0.00000000E+00  0.00000000E+00  0.00000000E+00
  0.00000000E+00 -1.19967422E+00  0.00000000E+00  0.00000000E+00  0.00000000E+00
  1.43532797E+00  0.00000000E+00  0.00000000E+00  0.00000000E+00 -5.02755929E-01
  0.00000000E+00  0.00000000E+00  0.00000000E+00  0.00000000E+00  0.00000000E+00
  0.00000000E+00  0.00000000E+00  0.00000000E+00  2.22270798E-02 -1.97818513E+00
  0.00000000E+00  0.00000000E+00  0.00000000E+00  2.58694891E+00  0.00000000E+00
  0.00000000E+00  0.00000000E+00 -8.24188623E-01  0.00000000E+00  0.00000000E+00
  0.00000000E+00 -6.83369459E-02 -8.21909162E-02 -8.21909162E-02  0.00000000E+00
  0.00000000E+00  0.00000000E+00  1.70898697E-15 -1.01401506E-14  0.00000000E+00
  0.00000000E+00  0.00000000E+00 -1.00078313E-14  0.00000000E+00  0.00000000E+00
  0.00000000E+00  3.38159478E-15  0.00000000E+00  0.00000000E+00  0.00000000E+00
  3.39336417E-14  8.66025404E-01 -8.66025404E-01  0.00000000E+00  0.00000000E+00
  0.00000000E+00  0.00000000E+00  0.00000000E+00  0.00000000E+00  0.00000000E+00
  0.00000000E+00  0.00000000E+00  0.00000000E+00  0.00000000E+00  0.00000000E+00
  0.00000000E+00  0.00000000E+00  0.00000000E+00  0.00000000E+00  0.00000000E+00
  0.00000000E+00  0.00000000E+00  0.00000000E+00  0.00000000E+00  1.00000000E+00
  0.00000000E+00  0.00000000E+00  0.00000000E+00  0.00000000E+00  0.00000000E+00
  0.00000000E+00  0.00000000E+00  0.00000000E+00  0.00000000E+00  0.00000000E+00
  0.00000000E+00  0.00000000E+00  0.00000000E+00  0.00000000E+00  0.00000000E+00
  0.00000000E+00  1.00000000E+00  0.00000000E+00  0.00000000E+00  0.00000000E+00
  0.00000000E+00  0.00000000E+00  0.00000000E+00  0.00000000E+00  0.00000000E+00
  0.00000000E+00  0.00000000E+00  0.00000000E+00  0.00000000E+00  0.00000000E+00
  0.00000000E+00  0.00000000E+00  0.00000000E+00  0.00000000E+00  0.00000000E+00
  0.00000000E+00  1.00000000E+00  0.00000000E+00 -9.32138426E-04  1.42472334E-02
  0.00000000E+00  0.00000000E+00  0.00000000E+00 -1.85728029E-02  0.00000000E+00
  0.00000000E+00  0.00000000E+00  5.10216919E-03  0.00000000E+00  0.00000000E+00
  0.00000000E+00  1.00395230E+00 -4.95945522E-01 -4.95945522E-01  0.00000000E+00
  0.00000000E+00  0.00000000E+00 -4.75760443E-01  4.16358822E+00  0.00000000E+00
  0.00000000E+00  0.00000000E+00  6.07481307E-01  0.00000000E+00  0.00000000E+00
  0.00000000E+00 -2.04121880E-01  0.00000000E+00  0.00000000E+00  0.00000000E+00
 -2.06197278E+00 -2.06437026E+00 -2.06437026E+00  0.00000000E+00  0.00000000E+00
  0.00000000E+00
Beta MO coefficients                       R   N=         361
  9.92528613E-01  5.71612031E-02  0.00000000E+00  0.00000000E+00  0.00000000E+00
 -1.48090405E-02  0.00000000E+00  0.00000000E+00  0.00000000E+00  3.29717276E-03
  0.00000000E+00  0.00000000E+00  0.00000000E+00 -9.98250535E-03 -1.06666114E-02
 -1.06666114E-02  0.00000000E+00  0.00000000E+00  0.00000000E+00 -2.25261573E-01
  3.76799328E-01  0.00000000E+00  0.00000000E+00  0.00000000E+00  5.51789675E-01
  0.00000000E+00  0.00000000E+00  0.00000000E+00  1.80575663E-01  0.00000000E+00
  0.00000000E+00  0.00000000E+00  2.21934368E-02 -7.00738757E-03 -7.00738757E-03
  0.00000000E+00  0.00000000E+00  0.00000000E+00  0.00000000E+00  0.00000000E+00
  4.49107210E-01  0.00000000E+00  0.00000000E+00  0.00000000E+00  2.97381561E-01
  0.00000000E+00  0.00000000E+00  0.00000000E+00  5.27878285E-01  0.00000000E+00
  0.00000000E+00  0.00000000E+00  0.00000000E+00  0.00000000E+00  0.00000000E+00
  0.00000000E+00  0.00000000E+00  0.00000000E+00  0.00000000E+00  0.00000000E+00
  0.00000000E+00  3.72915388E-01  0.00000000E+00  0.00000000E+00  0.00000000E+00
  2.02637147E-01  0.00000000E+00  0.00000000E+00  0.00000000E+00  6.88356783E-01
  0.00000000E+00  0.00000000E+00  0.00000000E+00  0.00000000E+00  0.00000000E+00
  0.00000000E+00  0.00000000E+00  0.00000000E+00  0.00000000E+00  3.72915388E-01
  0.00000000E+00  0.00000000E+00  0.00000000E+00  2.02637147E-01  0.00000000E+00
  0.00000000E+00  0.00000000E+00  6.88356783E-01  0.00000000E+00  0.00000000E+00
  0.00000000E+00  0.00000000E+00  0.00000000E+00  0.00000000E+00  0.00000000E+00
  1.19042209E-01 -6.81890261E-02  0.00000000E+00  0.00000000E+00  0.00000000E+00
 -1.03347635E+00  0.00000000E+00  0.00000000E+00  0.00000000E+00  1.42217394E+00
  0.00000000E+00  0.00000000E+00  0.00000000E+00  7.74072499E-03  1.97955956E-02
  1.97955956E-02  0.00000000E+00  0.00000000E+00  0.00000000E+00  0.00000000E+00
  0.00000000E+00 -3.74284590E-01  0.00000000E+00  0.00000000E+00  0.00000000E+00
 -6.02824224E-01  0.00000000E+00  0.00000000E+00  0.00000000E+00  1.03101411E+00
  0.00000000E+00  0.00000000E+00  0.00000000E+00  0.00000000E+00  0.00000000E+00
  0.00000000E+00  0.00000000E+00  0.00000000E+00  0.00000000E+00  0.00000000E+00
  0.00000000E+00  0.00000000E+00 -4.21714516E-01  0.00000000E+00  0.00000000E+00
  0.00000000E+00 -6.70035755E-01  0.00000000E+00  0.00000000E+00  0.00000000E+00
  9.38283110E-01  0.00000000E+00  0.00000000E+00  0.00000000E+00  0.00000000E+00
  0.00000000E+00  0.00000000E+00  0.00000000E+00  0.00000000E+00  0.00000000E+00
 -4.21714516E-01  0.00000000E+00  0.00000000E+00  0.00000000E+00 -6.70035755E-01
  0.00000000E+00  0.00000000E+00  0.00000000E+00  9.38283110E-01  0.00000000E+00
  0.00000000E+00  0.00000000E+00  0.00000000E+00  0.00000000E+00  0.00000000E+00
  0.00000000E+00  0.00000000E+00  0.00000000E+00 -1.19385577E+00  0.00000000E+00
  0.00000000E+00  0.00000000E+00  1.44209762E+00  0.00000000E+00  0.00000000E+00
  0.00000000E+00 -5.07472154E-01  0.00000000E+00  0.00000000E+00  0.00000000E+00
  0.00000000E+00  0.00000000E+00  0.00000000E+00  0.00000000E+00  0.00000000E+00
  0.00000000E+00  0.00000000E+00  0.00000000E+00 -1.20422956E+00  0.00000000E+00
  0.00000000E+00  0.00000000E+00  1.42879972E+00  0.00000000E+00  0.00000000E+00
  0.00000000E+00 -4.94937678E-01  0.00000000E+00  0.00000000E+00  0.00000000E+00
  0.00000000E+00  0.00000000E+00  0.00000000E+00  0.00000000E+00  0.00000000E+00
  0.00000000E+00  0.00000000E+00  0.00000000E+00 -1.20422956E+00  0.00000000E+00
  0.00000000E+00  0.00000000E+00  1.42879972E+00  0.00000000E+00  0.00000000E+00
  0.00000000E+00 -4.94937678E-01  0.00000000E+00  0.00000000E+00  0.00000000E+00
  0.00000000E+00  0.00000000E+00  0.00000000E+00  2.36279828E-02 -1.98084450E+00
  0.00000000E+00  0.00000000E+00  0.00000000E+00  2.57540325E+00  0.00000000E+00
  0.00000000E+00  0.00000000E+00 -8.11459923E-01  0.00000000E+00  0.00000000E+00
  0.00000000E+00 -9.50624629E-02 -6.78518700E-02 -6.78518700E-02  0.00000000E+00
  0.00000000E+00  0.00000000E+00  7.54021669E-03 -6.33283676E-02  0.00000000E+00
  0.00000000E+00  0.00000000E+00  2.48540357E-02  0.00000000E+00  0.00000000E+00
  0.00000000E+00 -5.85968497E-03  0.00000000E+00  0.00000000E+00  0.00000000E+00
  1.00793777E+00 -4.91466079E-01 -4.91466079E-01  0.00000000E+00  0.00000000E+00
  0.00000000E+00  0.00000000E+00  0.00000000E+00  0.00000000E+00  0.00000000E+00
  0.00000000E+00  0.00000000E+00  0.00000000E+00  0.00000000E+00  0.00000000E+00
  0.00000000E+00  0.00000000E+00  0.00000000E+00  0.00000000E+00  0.00000000E+00
  0.00000000E+00  0.00000000E+00  1.00000000E+00  0.00000000E+00  0.00000000E+00
  0.00000000E+00  0.00000000E+00  0.00000000E+00  0.00000000E+00  0.00000000E+00
  0.00000000E+00  0.00000000E+00  0.00000000E+00  0.00000000E+00  0.00000000E+00
  0.00000000E+00  0.00000000E+00  0.00000000E+00  0.00000000E+00  0.00000000E+00
  0.00000000E+00  0.00000000E+00  1.00000000E+00  0.00000000E+00  0.00000000E+00
  0.00000000E+00  0.00000000E+00  0.00000000E+00  0.00000000E+00  0.00000000E+00
  0.00000000E+00  0.00000000E+00  0.00000000E+00  0.00000000E+00  0.00000000E+00
  0.00000000E+00  0.00000000E+00  0.00000000E+00  0.00000000E+00  0.00000000E+00
  0.00000000E+00  0.00000000E+00  1.00000000E+00  1.71357292E-15 -9.39540891E-15
  0.00000000E+00  0.00000000E+00  0.00000000E+00 -1.09614871E-14  0.00000000E+00
  0.00000000E+00  0.00000000E+00  4.28896437E-15  0.00000000E+00  0.00000000E+00
  0.00000000E+00 -9.55753206E-15  8.66025404E-01 -8.66025404E-01  0.00000000E+00
  0.00000000E+00  0.00000000E+00 -4.74650539E-01  4.16201157E+00  0.00000000E+00
  0.00000000E+00  0.00000000E+00  6.06104975E-01  0.00000000E+00  0.00000000E+00
  0.00000000E+00 -2.03226985E-01  0.00000000E+00  0.00000000E+00  0.00000000E+00
 -2.05890229E+00 -2.06591593E+00 -2.06591593E+00  0.00000000E+00  0.00000000E+00
  0.00000000E+00
Orthonormal basis                          R   N=         361
  6.07312040E-02  2.52111690E-01  0.00000000E+00  0.00000000E+00  0.00000000E+00
  2.50779529E-01  0.00000000E+00  0.00000000E+00  0.00000000E+00  1.67411191E-01
  0.00000000E+00  0.00000000E+00  0.00000000E+00  1.87610854E-01  1.87610854E-01
  1.87610854E-01  0.00000000E+00  0.00000000E+00  0.00000000E+00  9.96289907E-01
  2.89352924E-02  0.00000000E+00  0.00000000E+00  0.00000000E+00 -3.50646004E-02
  0.00000000E+00  0.00000000E+00  0.00000000E+00 -1.54019262E-01  0.00000000E+00
  0.00000000E+00  0.00000000E+00 -5.90278200E-02 -5.90278200E-02 -5.90278200E-02
  0.00000000E+00  0.00000000E+00  0.00000000E+00  1.19240407E-01 -3.18056307E-01
  0.00000000E+00  0.00000000E+00  0.00000000E+00  2.28215546E-01  0.00000000E+00
  0.00000000E+00  0.00000000E+00  9.53647131E-01  0.00000000E+00  0.00000000E+00
  0.00000000E+00 -2.55740160E-01 -2.55740160E-01 -2.55740160E-01  0.00000000E+00
  0.00000000E+00  0.00000000E+00 -8.26541259E-18  9.96434449E-17  0.00000000E+00
  0.00000000E+00  0.00000000E+00 -1.95282793E-16  0.00000000E+00  0.00000000E+00
  0.00000000E+00 -4.76471061E-16  0.00000000E+00  0.00000000E+00  0.00000000E+00
 -8.33609523E-01 -6.15480087E-02  8.95157531E-01  0.00000000E+00  0.00000000E+00
  0.00000000E+00  7.47312445E-18 -5.22431812E-17  0.00000000E+00  0.00000000E+00
  0.00000000E+00  4.86730027E-17  0.00000000E+00  0.00000000E+00  0.00000000E+00
  4.65560891E-17  0.00000000E+00  0.00000000E+00  0.00000000E+00 -5.52354201E-01
  9.98104124E-01 -4.45749923E-01  0.00000000E+00  0.00000000E+00  0.00000000E+00
 -1.84519472E-01 -6.86302945E-01  0.00000000E+00  0.00000000E+00  0.00000000E+00
  2.87267869E+00  0.00000000E+00  0.00000000E+00  0.00000000E+00 -1.33921742E+00
  0.00000000E+00  0.00000000E+00  0.00000000E+00 -5.54299740E-01 -5.54299740E-01
 -5.54299740E-01  0.00000000E+00  0.00000000E+00  0.00000000E+00 -4.81027622E-01
  4.55668975E+00  0.00000000E+00  0.00000000E+00  0.00000000E+00 -7.04434161E-02
  0.00000000E+00  0.00000000E+00  0.00000000E+00  1.74735284E-02  0.00000000E+00
  0.00000000E+00  0.00000000E+00 -1.96300098E+00 -1.96300098E+00 -1.96300098E+00
  0.00000000E+00  0.00000000E+00  0.00000000E+00  0.00000000E+00  0.00000000E+00
  0.00000000E+00  0.00000000E+00  0.00000000E+00  0.00000000E+00  0.00000000E+00
  0.00000000E+00  0.00000000E+00  0.00000000E+00  0.00000000E+00  0.00000000E+00
  0.00000000E+00  0.00000000E+00  0.00000000E+00  0.00000000E+00  1.00000000E+00
  0.00000000E+00  0.00000000E+00  0.00000000E+00  0.00000000E+00  0.00000000E+00
  0.00000000E+00  0.00000000E+00  0.00000000E+00  0.00000000E+00  0.00000000E+00
  0.00000000E+00  0.00000000E+00  0.00000000E+00  0.00000000E+00  0.00000000E+00
  0.00000000E+00  0.00000000E+00  0.00000000E+00  0.00000000E+00  1.00000000E+00
  0.00000000E+00  0.00000000E+00  0.00000000E+00  0.00000000E+00  0.00000000E+00
  0.00000000E+00  0.00000000E+00  0.00000000E+00  0.00000000E+00  0.00000000E+00
  0.00000000E+00  0.00000000E+00  0.00000000E+00  0.00000000E+00  0.00000000E+00
  0.00000000E+00  0.00000000E+00  0.00000000E+00  0.00000000E+00  1.00000000E+00
  0.00000000E+00  0.00000000E+00  0.00000000E+00  0.00000000E+00  3.88923426E-01
  0.00000000E+00  0.00000000E+00  0.00000000E+00  4.79994428E-01  0.00000000E+00
  0.00000000E+00  0.00000000E+00  3.65895389E-01  0.00000000E+00  0.00000000E+00
  0.00000000E+00  0.00000000E+00  0.00000000E+00  0.00000000E+00  0.00000000E+00
  0.00000000E+00  0.00000000E+00  0.00000000E+00 -7.41076485E-01  0.00000000E+00
  0.00000000E+00  0.00000000E+00 -2.33564121E-02  0.00000000E+00  0.00000000E+00
  0.00000000E+00  8.18356725E-01  0.00000000E+00  0.00000000E+00  0.00000000E+00
  0.00000000E+00  0.00000000E+00  0.00000000E+00  0.00000000E+00  0.00000000E+00
  0.00000000E+00  0.00000000E+00 -1.03277396E+00  0.00000000E+00  0.00000000E+00
  0.00000000E+00  1.51675252E+00  0.00000000E+00  0.00000000E+00  0.00000000E+00
 -8.91956499E-01  0.00000000E+00  0.00000000E+00  0.00000000E+00  0.00000000E+00
  0.00000000E+00  0.00000000E+00  0.00000000E+00  0.00000000E+00  0.00000000E+00
  3.88923426E-01  0.00000000E+00  0.00000000E+00  0.00000000E+00  4.79994428E-01
  0.00000000E+00  0.00000000E+00  0.00000000E+00  3.65895389E-01  0.00000000E+00
  0.00000000E+00  0.00000000E+00  0.00000000E+00  0.00000000E+00  0.00000000E+00
  0.00000000E+00  0.00000000E+00  0.00000000E+00  0.00000000E+00 -7.41076485E-01
  0.00000000E+00  0.00000000E+00  0.00000000E+00 -2.33564121E-02  0.00000000E+00
  0.00000000E+00  0.00000000E+00  8.18356725E-01  0.00000000E+00  0.00000000E+00
  0.00000000E+00  0.00000000E+00  0.00000000E+00  0.00000000E+00  0.00000000E+00
  0.00000000E+00  0.00000000E+00  0.00000000E+00 -1.03277396E+00  0.00000000E+00
  0.00000000E+00  0.00000000E+00  1.51675252E+00  0.00000000E+00  0.00000000E+00
  0.00000000E+00 -8.91956499E-01  0.00000000E+00  0.00000000E+00  0.00000000E+00
  0.00000000E+00  0.00000000E+00  0.00000000E+00  0.00000000E+00  0.00000000E+00
  0.00000000E+00  3.88923426E-01  0.00000000E+00  0.00000000E+00  0.00000000E+00
  4.79994428E-01  0.00000000E+00  0.00000000E+00  0.00000000E+00  3.65895389E-01
  0.00000000E+00  0.00000000E+00  0.00000000E+00  0.00000000E+00  0.00000000E+00
  0.00000000E+00  0.00000000E+00  0.00000000E+00  0.00000000E+00  0.00000000E+00
 -7.41076485E-01  0.00000000E+00  0.00000000E+00  0.00000000E+00 -2.33564121E-02
  0.00000000E+00  0.00000000E+00  0.00000000E+00  8.18356725E-01  0.00000000E+00
  0.00000000E+00  0.00000000E+00  0.00000000E+00  0.00000000E+00  0.00000000E+00
  0.00000000E+00  0.00000000E+00  0.00000000E+00  0.00000000E+00 -1.03277396E+00
  0.00000000E+00  0.00000000E+00  0.00000000E+00  1.51675252E+00  0.00000000E+00
  0.00000000E+00  0.00000000E+00 -8.91956499E-01  0.00000000E+00  0.00000000E+00
  0.00000000E+00  0.00000000E+00  0.00000000E+00  0.00000000E+00  0.00000000E+00
  0.00000000E+00
Total SCF Density                          R   N=         190
  2.07229800E+00 -5.42993228E-02  2.91245337E-01  0.00000000E+00  0.00000000E+00
  8.04966526E-34  0.00000000E+00  0.00000000E+00 -3.28652525E-18  2.14692122E-01
  0.00000000E+00  0.00000000E+00  3.28652525E-18 -3.00445071E-32  2.14692122E-01
 -2.84535196E-01  4.21691278E-01  0.00000000E+00  0.00000000E+00  0.00000000E+00
  6.31308840E-01  0.00000000E+00  0.00000000E+00  5.60532348E-34 -2.28854699E-18
  2.28854699E-18  0.00000000E+00  3.90322459E-34  0.00000000E+00  0.00000000E+00
 -2.28854699E-18  1.49499234E-01 -4.16000868E-32  0.00000000E+00 -1.59361237E-18
  1.04102661E-01  0.00000000E+00  0.00000000E+00  2.28854699E-18 -4.16000868E-32
  1.49499234E-01  0.00000000E+00  1.59361237E-18 -4.33334237E-32  1.04102661E-01
 -6.66585958E-02  1.22186282E-01  0.00000000E+00  0.00000000E+00  0.00000000E+00
  1.80942249E-01  0.00000000E+00  0.00000000E+00  0.00000000E+00  5.29311303E-02
  0.00000000E+00  0.00000000E+00  8.42481165E-34 -3.43969039E-18  3.43969039E-18
  0.00000000E+00  5.86655383E-34 -2.39520237E-18  2.39520237E-18  0.00000000E+00
  8.81744135E-34  0.00000000E+00  0.00000000E+00 -3.43969039E-18  2.24697628E-01
  3.65926689E-32  0.00000000E+00 -2.39520237E-18  1.56466493E-01  3.85185989E-33
  0.00000000E+00 -3.59999363E-18  2.35169431E-01  0.00000000E+00  0.00000000E+00
  3.43969039E-18  3.65926689E-32  2.24697628E-01  0.00000000E+00  2.39520237E-18
  3.85185989E-33  1.56466493E-01  0.00000000E+00  3.59999363E-18  1.09392821E-31
  2.35169431E-01 -2.65977315E-02  7.19522416E-03  0.00000000E+00  0.00000000E+00
  0.00000000E+00  1.27413797E-02  0.00000000E+00  0.00000000E+00  0.00000000E+00
  3.97816049E-03  0.00000000E+00  0.00000000E+00  0.00000000E+00  7.29531253E-04
 -2.24834921E-02 -1.84379768E-04  0.00000000E+00  0.00000000E+00  0.00000000E+00
  2.13967468E-03  0.00000000E+00  0.00000000E+00  0.00000000E+00  7.78601308E-05
  0.00000000E+00  0.00000000E+00  0.00000000E+00  8.62309137E-05  3.89189525E-04
 -2.24834921E-02 -1.84379768E-04  0.00000000E+00  0.00000000E+00  0.00000000E+00
  2.13967468E-03  0.00000000E+00  0.00000000E+00  0.00000000E+00  7.78601308E-05
  0.00000000E+00  0.00000000E+00  0.00000000E+00  8.62309137E-05  3.89189525E-04
  3.89189525E-04 -7.27243403E-20  1.30443753E-19  0.00000000E+00  0.00000000E+00
  0.00000000E+00  1.87398430E-19  0.00000000E+00  0.00000000E+00  0.00000000E+00
  6.89426997E-20  0.00000000E+00  0.00000000E+00  0.00000000E+00  1.13711402E-20
 -5.35517336E-21 -5.35517336E-21  2.36526853E-36  7.27243403E-20 -1.30443753E-19