fubar
SP        UPBEPBE                                                     6-31+G(d,p)
Number of atoms                            I                1
Info1-9                                    I   N=           9
          11          10           0           0           0         110
           1          18         902
Charge                                     I               -2
Multiplicity                               I                3
Number of electrons                        I                8
Number of alpha electrons                  I                5
Number of beta electrons                   I                3
Number of basis functions                  I               19
Number of independent functions            I               19
Number of point charges in /Mol/           I                0
Number of translation vectors              I                0
Atomic numbers                             I   N=           1
           6
Nuclear charges                            R   N=           1
  6.00000000E+00
Current cartesian coordinates              R   N=           3
  0.00000000E+00  0.00000000E+00  0.00000000E+00
Force Field                                I                0
Int Atom Types                             I   N=           1
           0
MM charges                                 R   N=           1
  0.00000000E+00
Integer atomic weights                     I   N=           1
          12
Real atomic weights                        R   N=           1
  1.20000000E+01
Atom fragment info                         I   N=           1
           0
Atom residue num                           I   N=           1
           0
Nuclear spins                              I   N=           1
           0
Nuclear ZEff                               R   N=           1
 -3.60000000E+00
Nuclear ZNuc                               R   N=           1
  6.00000000E+00
Nuclear QMom                               R   N=           1
  0.00000000E+00
Nuclear GFac                               R   N=           1
  0.00000000E+00
MicOpt                                     I   N=           1
          -1
Number of contracted shells                I                5
Number of primitive shells                 I               12
Pure/Cartesian d shells                    I                1
Pure/Cartesian f shells                    I                0
Highest angular momentum                   I                2
Largest degree of contraction              I                6
Shell types                                I   N=           5
           0          -1          -1          -1           2
Number of primitives per shell             I   N=           5
           6           3           1           1           1
Shell to atom map                          I   N=           5
           1           1           1           1           1
Primitive exponents                        R   N=          12
  3.04752488E+03  4.57369518E+02  1.03948685E+02  2.92101553E+01  9.28666296E+00
  3.16392696E+00  7.86827235E+00  1.88128854E+00  5.44249258E-01  1.68714478E-01
  4.38000000E-02  8.00000000E-01
Contraction coefficients                   R   N=          12
  1.83473713E-03  1.40373228E-02  6.88426223E-02  2.32184443E-01  4.67941348E-01
  3.62311985E-01 -1.19332420E-01 -1.60854152E-01  1.14345644E+00  1.00000000E+00
  1.00000000E+00  1.00000000E+00
P(S=P) Contraction coefficients            R   N=          12
  0.00000000E+00  0.00000000E+00  0.00000000E+00  0.00000000E+00  0.00000000E+00
  0.00000000E+00  6.89990666E-02  3.16423961E-01  7.44308291E-01  1.00000000E+00
  1.00000000E+00  0.00000000E+00
Coordinates of each shell                  R   N=          15
  0.00000000E+00  0.00000000E+00  0.00000000E+00  0.00000000E+00  0.00000000E+00
  0.00000000E+00  0.00000000E+00  0.00000000E+00  0.00000000E+00  0.00000000E+00
  0.00000000E+00  0.00000000E+00  0.00000000E+00  0.00000000E+00  0.00000000E+00
Constraint Structure                       R   N=           3
  0.00000000E+00  0.00000000E+00  0.00000000E+00
Num ILSW                                   I              100
ILSW                                       I   N=         100
           1           1           0           0           2           0
           0           0           0           0        1009          -1
           0           0           0           0           0           0
           0           0           0           0           0           0
           1           0           0           0           0           0
           0           0      100000           0          -1           0
           0           0           0           0           0           0
           0           0           0           1           0           0
           0           0           1           0           0           0
           0           0           4          41           0           0
           0           0           0           0           0           0
           0           0           0           1           0           0
           0           0           0           0           0           0
           0           0           0           0           0           0
           0           0           0           0           0           0
           0           0           0           0           0           0
           0           0           0           0
Num RLSW                                   I               41
RLSW                                       R   N=          41
  1.00000000E+00  1.00000000E+00  1.00000000E+00  1.00000000E+00  0.00000000E+00
  0.00000000E+00  0.00000000E+00  1.00000000E+00  0.00000000E+00  0.00000000E+00
  0.00000000E+00  0.00000000E+00  1.00000000E+00  0.00000000E+00  0.00000000E+00
  0.00000000E+00  0.00000000E+00  1.00000000E+00  0.00000000E+00  0.00000000E+00
  0.00000000E+00  0.00000000E+00  1.00000000E+00  0.00000000E+00  0.00000000E+00
  0.00000000E+00  0.00000000E+00  1.00000000E+00  0.00000000E+00  0.00000000E+00
  0.00000000E+00  0.00000000E+00  1.00000000E+00  0.00000000E+00  0.00000000E+00
  0.00000000E+00  0.00000000E+00  0.00000000E+00  1.00000000E+00  1.00000000E+00
  0.00000000E+00
MxBond                                     I                1
NBond                                      I   N=           1
           0
IBond                                      I   N=           1
           0
RBond                                      R   N=           1
  0.00000000E+00
Virial Ratio                               R      2.003910487558159E+00
SCF Energy                                 R     -3.762341656659611E+01
Total Energy                               R     -3.762341656659611E+01
S**2                                       R      2.042500855201554E+00
S**2 after annihilation                    R      2.000138506690032E+00
RMS Density                                R      9.441910225001466E-10
External E-field                           R   N=          35
  0.00000000E+00  0.00000000E+00  0.00000000E+00  0.00000000E+00  0.00000000E+00
  0.00000000E+00  0.00000000E+00  0.00000000E+00  0.00000000E+00  0.00000000E+00
  0.00000000E+00  0.00000000E+00  0.00000000E+00  0.00000000E+00  0.00000000E+00
  0.00000000E+00  0.00000000E+00  0.00000000E+00  0.00000000E+00  0.00000000E+00
  0.00000000E+00  0.00000000E+00  0.00000000E+00  0.00000000E+00  0.00000000E+00
  0.00000000E+00  0.00000000E+00  0.00000000E+00  0.00000000E+00  0.00000000E+00
  0.00000000E+00  0.00000000E+00  0.00000000E+00  0.00000000E+00  0.00000000E+00
IOpCl                                      I                1
IROHF                                      I                0
Alpha Orbital Energies                     R   N=          19
 -9.52848624E+00 -3.08434593E-02  2.48693674E-01  2.48693674E-01  2.71621335E-01
  3.43813385E-01  3.69754811E-01  3.69754811E-01  3.84829367E-01  1.02455802E+00
  1.02455802E+00  1.04816068E+00  1.18311474E+00  2.04965886E+00  2.04965886E+00
  2.07296493E+00  2.07296493E+00  2.08108518E+00  4.28677572E+00
Beta Orbital Energies                      R   N=          19
 -9.50783388E+00  4.55060634E-02  2.91097418E-01  3.06726557E-01  3.06726557E-01
  3.63242722E-01  4.03581176E-01  4.21652286E-01  4.21652286E-01  1.07639650E+00
  1.09394303E+00  1.09394303E+00  1.24027175E+00  2.14293186E+00  2.14293186E+00
  2.14418677E+00  2.16240104E+00  2.16240122E+00  4.35399053E+00
Alpha MO coefficients                      R   N=         361
  9.92077318E-01  5.27969804E-02  0.00000000E+00  0.00000000E+00  0.00000000E+00
 -7.55463247E-03  0.00000000E+00  0.00000000E+00  0.00000000E+00  1.88237660E-03
  0.00000000E+00  0.00000000E+00  0.00000000E+00 -1.11557061E-02 -1.11557061E-02
 -1.14823474E-02  0.00000000E+00  0.00000000E+00  0.00000000E+00 -2.29447586E-01
  4.85726317E-01  0.00000000E+00  0.00000000E+00  0.00000000E+00  5.43550880E-01
  0.00000000E+00  0.00000000E+00  0.00000000E+00  9.87840892E-02  0.00000000E+00
  0.00000000E+00  0.00000000E+00 -4.75622839E-03 -4.75622839E-03 -2.04920705E-02
  0.00000000E+00  0.00000000E+00  0.00000000E+00  0.00000000E+00  0.00000000E+00
  5.16267904E-01  0.00000000E+00  0.00000000E+00  0.00000000E+00  2.71520214E-01
  0.00000000E+00  0.00000000E+00  0.00000000E+00  5.03450109E-01  0.00000000E+00
  0.00000000E+00  0.00000000E+00  0.00000000E+00  0.00000000E+00  0.00000000E+00
  0.00000000E+00  0.00000000E+00  0.00000000E+00  0.00000000E+00  0.00000000E+00
  5.16267904E-01  0.00000000E+00  0.00000000E+00  0.00000000E+00  2.71520214E-01
  0.00000000E+00  0.00000000E+00  0.00000000E+00  5.03450109E-01  0.00000000E+00
  0.00000000E+00  0.00000000E+00  0.00000000E+00  0.00000000E+00  0.00000000E+00
  0.00000000E+00  0.00000000E+00  0.00000000E+00  0.00000000E+00  0.00000000E+00
  4.81743859E-01  0.00000000E+00  0.00000000E+00  0.00000000E+00  2.20749212E-01
  0.00000000E+00  0.00000000E+00  0.00000000E+00  5.91846306E-01  0.00000000E+00
  0.00000000E+00  0.00000000E+00  0.00000000E+00  0.00000000E+00  0.00000000E+00
  1.00776540E-01 -9.73220348E-02  0.00000000E+00  0.00000000E+00  0.00000000E+00
 -9.90839257E-01  0.00000000E+00  0.00000000E+00  0.00000000E+00  1.45072356E+00
  0.00000000E+00  0.00000000E+00  0.00000000E+00  3.05604016E-02  3.05604016E-02
  3.52945826E-02  0.00000000E+00  0.00000000E+00  0.00000000E+00  0.00000000E+00
  0.00000000E+00 -3.83052790E-01  0.00000000E+00  0.00000000E+00  0.00000000E+00
 -5.82938092E-01  0.00000000E+00  0.00000000E+00  0.00000000E+00  1.05743820E+00
  0.00000000E+00  0.00000000E+00  0.00000000E+00  0.00000000E+00  0.00000000E+00
  0.00000000E+00  0.00000000E+00  0.00000000E+00  0.00000000E+00  0.00000000E+00
  0.00000000E+00 -3.83052790E-01  0.00000000E+00  0.00000000E+00  0.00000000E+00
 -5.82938092E-01  0.00000000E+00  0.00000000E+00  0.00000000E+00  1.05743820E+00
  0.00000000E+00  0.00000000E+00  0.00000000E+00  0.00000000E+00  0.00000000E+00
  0.00000000E+00  0.00000000E+00  0.00000000E+00  0.00000000E+00  0.00000000E+00
  0.00000000E+00 -4.17063126E-01  0.00000000E+00  0.00000000E+00  0.00000000E+00
 -6.15072952E-01  0.00000000E+00  0.00000000E+00  0.00000000E+00  1.01471544E+00
  0.00000000E+00  0.00000000E+00  0.00000000E+00  0.00000000E+00  0.00000000E+00
  0.00000000E+00  0.00000000E+00  0.00000000E+00  0.00000000E+00 -1.08263411E+00
  0.00000000E+00  0.00000000E+00  0.00000000E+00  1.39528617E+00  0.00000000E+00
  0.00000000E+00  0.00000000E+00 -5.16663887E-01  0.00000000E+00  0.00000000E+00
  0.00000000E+00  0.00000000E+00  0.00000000E+00  0.00000000E+00  0.00000000E+00
  0.00000000E+00  0.00000000E+00 -1.08263411E+00  0.00000000E+00  0.00000000E+00
  0.00000000E+00  1.39528617E+00  0.00000000E+00  0.00000000E+00  0.00000000E+00
 -5.16663887E-01  0.00000000E+00  0.00000000E+00  0.00000000E+00  0.00000000E+00
  0.00000000E+00  0.00000000E+00  0.00000000E+00  0.00000000E+00  0.00000000E+00
  0.00000000E+00  0.00000000E+00  0.00000000E+00 -1.08597413E+00  0.00000000E+00
  0.00000000E+00  0.00000000E+00  1.39043827E+00  0.00000000E+00  0.00000000E+00
  0.00000000E+00 -5.08576109E-01  0.00000000E+00  0.00000000E+00  0.00000000E+00
  0.00000000E+00  0.00000000E+00  0.00000000E+00  2.34421967E-02 -1.70769936E+00
  0.00000000E+00  0.00000000E+00  0.00000000E+00  2.42531629E+00  0.00000000E+00
  0.00000000E+00  0.00000000E+00 -8.24546141E-01  0.00000000E+00  0.00000000E+00
  0.00000000E+00 -1.12210393E-01 -1.12210393E-01 -1.03066505E-01  0.00000000E+00
  0.00000000E+00  0.00000000E+00  0.00000000E+00  0.00000000E+00  0.00000000E+00
  0.00000000E+00  0.00000000E+00  0.00000000E+00  0.00000000E+00  0.00000000E+00
  0.00000000E+00  0.00000000E+00  0.00000000E+00  0.00000000E+00  0.00000000E+00
  0.00000000E+00  0.00000000E+00  0.00000000E+00  1.00000000E+00  0.00000000E+00
  0.00000000E+00 -8.61662108E-16  5.40024467E-15  0.00000000E+00  0.00000000E+00
  0.00000000E+00 -5.58920959E-16  0.00000000E+00  0.00000000E+00  0.00000000E+00
  1.22394190E-15  0.00000000E+00  0.00000000E+00  0.00000000E+00  8.66025404E-01
 -8.66025404E-01  1.26076160E-13  0.00000000E+00  0.00000000E+00  0.00000000E+00
  0.00000000E+00  0.00000000E+00  0.00000000E+00  0.00000000E+00  0.00000000E+00
  0.00000000E+00  0.00000000E+00  0.00000000E+00  0.00000000E+00  0.00000000E+00
  0.00000000E+00  0.00000000E+00  0.00000000E+00  0.00000000E+00  0.00000000E+00
  0.00000000E+00  0.00000000E+00  1.00000000E+00  0.00000000E+00  0.00000000E+00
  0.00000000E+00  0.00000000E+00  0.00000000E+00  0.00000000E+00  0.00000000E+00
  0.00000000E+00  0.00000000E+00  0.00000000E+00  0.00000000E+00  0.00000000E+00
  0.00000000E+00  0.00000000E+00  0.00000000E+00  0.00000000E+00  0.00000000E+00
  0.00000000E+00  0.00000000E+00  1.00000000E+00 -3.91661203E-03  2.45119307E-02
  0.00000000E+00  0.00000000E+00  0.00000000E+00 -2.77107995E-03  0.00000000E+00
  0.00000000E+00  0.00000000E+00  5.99079190E-04  0.00000000E+00  0.00000000E+00
  0.00000000E+00 -5.04486677E-01 -5.04486677E-01  9.95389576E-01  0.00000000E+00
  0.00000000E+00  0.00000000E+00 -4.53612220E-01  3.11623879E+00  0.00000000E+00
  0.00000000E+00  0.00000000E+00  1.14305851E+00  0.00000000E+00  0.00000000E+00
  0.00000000E+00 -3.17659660E-01  0.00000000E+00  0.00000000E+00  0.00000000E+00
 -1.78682438E+00 -1.78682438E+00 -1.79100524E+00  0.00000000E+00  0.00000000E+00
  0.00000000E+00
Beta MO coefficients                       R   N=         361
  9.92733913E-01  4.84383337E-02  0.00000000E+00  0.00000000E+00  0.00000000E+00
 -7.75225808E-03  0.00000000E+00  0.00000000E+00  0.00000000E+00  1.97718886E-03
  0.00000000E+00  0.00000000E+00  0.00000000E+00 -9.84566627E-03 -9.84566627E-03
 -9.54800410E-03  0.00000000E+00  0.00000000E+00  0.00000000E+00 -2.24055221E-01
  4.62439202E-01  0.00000000E+00  0.00000000E+00  0.00000000E+00  5.31041414E-01
  0.00000000E+00  0.00000000E+00  0.00000000E+00  1.50132847E-01  0.00000000E+00
  0.00000000E+00  0.00000000E+00 -1.47482852E-02 -1.47482852E-02 -3.75124532E-03
  0.00000000E+00  0.00000000E+00  0.00000000E+00  0.00000000E+00  0.00000000E+00
  0.00000000E+00  0.00000000E+00  3.84022283E-01  0.00000000E+00  0.00000000E+00
  0.00000000E+00  9.84199047E-02  0.00000000E+00  0.00000000E+00  0.00000000E+00
  7.81293393E-01  0.00000000E+00  0.00000000E+00  0.00000000E+00  0.00000000E+00
  0.00000000E+00  0.00000000E+00  0.00000000E+00  0.00000000E+00  0.00000000E+00
  3.65070062E-01  0.00000000E+00  0.00000000E+00  0.00000000E+00  8.97101515E-02
  0.00000000E+00  0.00000000E+00  0.00000000E+00  8.00365426E-01  0.00000000E+00
  0.00000000E+00  0.00000000E+00  0.00000000E+00  0.00000000E+00  0.00000000E+00
  0.00000000E+00  0.00000000E+00  0.00000000E+00  3.65070062E-01  0.00000000E+00
  0.00000000E+00  0.00000000E+00  8.97101515E-02  0.00000000E+00  0.00000000E+00
  0.00000000E+00  8.00365426E-01  0.00000000E+00  0.00000000E+00  0.00000000E+00
  0.00000000E+00  0.00000000E+00  0.00000000E+00  0.00000000E+00  0.00000000E+00
  1.09907038E-01 -8.94324917E-02  0.00000000E+00  0.00000000E+00  0.00000000E+00
 -1.05661711E+00  0.00000000E+00  0.00000000E+00  0.00000000E+00  1.45988159E+00
  0.00000000E+00  0.00000000E+00  0.00000000E+00  3.69999902E-02  3.69999902E-02
  3.28714767E-02  0.00000000E+00  0.00000000E+00  0.00000000E+00  0.00000000E+00
  0.00000000E+00  0.00000000E+00  0.00000000E+00 -4.86255429E-01  0.00000000E+00
  0.00000000E+00  0.00000000E+00 -6.70865344E-01  0.00000000E+00  0.00000000E+00
  0.00000000E+00  8.84160885E-01  0.00000000E+00  0.00000000E+00  0.00000000E+00
  0.00000000E+00  0.00000000E+00  0.00000000E+00  0.00000000E+00  0.00000000E+00
 -4.85447048E-01  0.00000000E+00  0.00000000E+00  0.00000000E+00 -6.86053335E-01
  0.00000000E+00  0.00000000E+00  0.00000000E+00  8.68841051E-01  0.00000000E+00
  0.00000000E+00  0.00000000E+00  0.00000000E+00  0.00000000E+00  0.00000000E+00
  0.00000000E+00  0.00000000E+00  0.00000000E+00  0.00000000E+00  0.00000000E+00
 -4.85447048E-01  0.00000000E+00  0.00000000E+00  0.00000000E+00 -6.86053335E-01
  0.00000000E+00  0.00000000E+00  0.00000000E+00  8.68841051E-01  0.00000000E+00
  0.00000000E+00  0.00000000E+00  0.00000000E+00  0.00000000E+00  0.00000000E+00
  0.00000000E+00  0.00000000E+00  0.00000000E+00  0.00000000E+00  0.00000000E+00
 -1.09610271E+00  0.00000000E+00  0.00000000E+00  0.00000000E+00  1.37862858E+00
  0.00000000E+00  0.00000000E+00  0.00000000E+00 -4.96406385E-01  0.00000000E+00
  0.00000000E+00  0.00000000E+00  0.00000000E+00  0.00000000E+00  0.00000000E+00
  0.00000000E+00  0.00000000E+00  0.00000000E+00 -1.10291596E+00  0.00000000E+00
  0.00000000E+00  0.00000000E+00  1.37173119E+00  0.00000000E+00  0.00000000E+00
  0.00000000E+00 -4.93061405E-01  0.00000000E+00  0.00000000E+00  0.00000000E+00
  0.00000000E+00  0.00000000E+00  0.00000000E+00  0.00000000E+00  0.00000000E+00
  0.00000000E+00 -1.10291596E+00  0.00000000E+00  0.00000000E+00  0.00000000E+00
  1.37173119E+00  0.00000000E+00  0.00000000E+00  0.00000000E+00 -4.93061405E-01
  0.00000000E+00  0.00000000E+00  0.00000000E+00  0.00000000E+00  0.00000000E+00
  0.00000000E+00  0.00000000E+00  0.00000000E+00  2.56180990E-02 -1.70264342E+00
  0.00000000E+00  0.00000000E+00  0.00000000E+00  2.40524133E+00  0.00000000E+00
  0.00000000E+00  0.00000000E+00 -8.01875919E-01  0.00000000E+00  0.00000000E+00
  0.00000000E+00 -1.11514744E-01 -1.11514744E-01 -1.23967274E-01  0.00000000E+00
  0.00000000E+00  0.00000000E+00  0.00000000E+00  0.00000000E+00  0.00000000E+00
  0.00000000E+00  0.00000000E+00  0.00000000E+00  0.00000000E+00  0.00000000E+00
  0.00000000E+00  0.00000000E+00  0.00000000E+00  0.00000000E+00  0.00000000E+00
  0.00000000E+00  0.00000000E+00  0.00000000E+00  0.00000000E+00  1.00000000E+00
  0.00000000E+00  0.00000000E+00  0.00000000E+00  0.00000000E+00  0.00000000E+00
  0.00000000E+00  0.00000000E+00  0.00000000E+00  0.00000000E+00  0.00000000E+00
  0.00000000E+00  0.00000000E+00  0.00000000E+00  0.00000000E+00  0.00000000E+00
  0.00000000E+00  0.00000000E+00  0.00000000E+00  0.00000000E+00  1.00000000E+00
  1.97362728E-03 -1.78696213E-02  0.00000000E+00  0.00000000E+00  0.00000000E+00
  1.31367727E-02  0.00000000E+00  0.00000000E+00  0.00000000E+00 -3.73134857E-03
  0.00000000E+00  0.00000000E+00  0.00000000E+00 -5.00696328E-01 -5.00696328E-01
  9.99205957E-01  0.00000000E+00  0.00000000E+00  0.00000000E+00  0.00000000E+00
  0.00000000E+00  0.00000000E+00  0.00000000E+00  0.00000000E+00  0.00000000E+00
  0.00000000E+00  0.00000000E+00  0.00000000E+00  0.00000000E+00  0.00000000E+00
  0.00000000E+00  0.00000000E+00  0.00000000E+00  0.00000000E+00  0.00000000E+00
  1.00000000E+00  0.00000000E+00  0.00000000E+00 -2.31382097E-16  5.82875457E-15
  0.00000000E+00  0.00000000E+00  0.00000000E+00 -5.58433175E-15  0.00000000E+00
  0.00000000E+00  0.00000000E+00  2.59697415E-15  0.00000000E+00  0.00000000E+00
  0.00000000E+00  8.66025404E-01 -8.66025404E-01 -1.01837263E-13  0.00000000E+00
  0.00000000E+00  0.00000000E+00 -4.52644816E-01  3.12289335E+00  0.00000000E+00
  0.00000000E+00  0.00000000E+00  1.13232211E+00  0.00000000E+00  0.00000000E+00
  0.00000000E+00 -3.13573108E-01  0.00000000E+00  0.00000000E+00  0.00000000E+00
 -1.78776524E+00 -1.78776524E+00 -1.78772318E+00  0.00000000E+00  0.00000000E+00
  0.00000000E+00
Total SCF Density                          R   N=         190
  2.07258496E+00 -1.14595585E-01  4.54913864E-01  0.00000000E+00  0.00000000E+00
  2.66532549E-01  0.00000000E+00  0.00000000E+00 -1.54074396E-33  2.66532549E-01
  0.00000000E+00  0.00000000E+00  1.73008473E-18 -1.73008473E-18  3.79550260E-01
 -2.58889748E-01  5.08816967E-01  0.00000000E+00  0.00000000E+00  0.00000000E+00
  5.77569713E-01  0.00000000E+00  0.00000000E+00  1.40177172E-01  2.04148574E-32
  6.06635242E-20  0.00000000E+00  7.37232265E-02  0.00000000E+00  0.00000000E+00
  2.04148574E-32  1.40177172E-01 -6.06635242E-20  0.00000000E+00  2.19556014E-32
  7.37232265E-02  0.00000000E+00  0.00000000E+00  6.06635242E-20 -6.06635242E-20
  1.44140014E-01  0.00000000E+00 -2.34313728E-19  2.34313728E-19  5.84166922E-02
 -5.24735335E-02  1.17604501E-01  0.00000000E+00  0.00000000E+00  0.00000000E+00
  1.33391390E-01  0.00000000E+00  0.00000000E+00  0.00000000E+00  3.23056207E-02
  0.00000000E+00  0.00000000E+00  2.59915132E-01 -2.77333912E-32  4.97875968E-18
  0.00000000E+00  1.36696881E-01  6.93334780E-33  1.08454025E-18  0.00000000E+00
  2.53462012E-01  0.00000000E+00  0.00000000E+00 -2.77333912E-32  2.59915132E-01
 -4.97875968E-18  0.00000000E+00  6.93334780E-33  1.36696881E-01 -1.08454025E-18
  0.00000000E+00 -5.08445505E-32  2.53462012E-01  0.00000000E+00  0.00000000E+00
  4.97875968E-18 -4.97875968E-18  5.85152396E-01  0.00000000E+00  1.08454025E-18
 -1.08454025E-18  2.07544427E-01  0.00000000E+00  1.08264809E-17 -1.08264809E-17
  9.60701416E-01 -1.64457144E-02 -1.01963058E-02  0.00000000E+00  0.00000000E+00
  0.00000000E+00 -1.02565990E-02  0.00000000E+00  0.00000000E+00  0.00000000E+00
 -2.72450772E-03  0.00000000E+00  0.00000000E+00  0.00000000E+00  4.61520548E-04
 -1.64457144E-02 -1.01963058E-02  0.00000000E+00  0.00000000E+00  0.00000000E+00
 -1.02565990E-02  0.00000000E+00  0.00000000E+00  0.00000000E+00 -2.72450772E-03
  0.00000000E+00  0.00000000E+00  0.00000000E+00  4.61520548E-04  4.61520548E-04
 -1.53276616E-02 -1.27569835E-02  0.00000000E+00  0.00000000E+00  0.00000000E+00
 -1.29697860E-02  0.00000000E+00  0.00000000E+00  0.00000000E+00 -2.62796797E-03
  0.00000000E+00  0.00000000E+00  0.00000000E+00  3.74889557E-04  3.74889557E-04
  6.57005476E-04 -2.95497038E-32  1.10568153E-32  0.00000000E+00  0.00000000E+00
  0.00000000E+00  1.40520934E-32  0.00000000E+00  0.00000000E+00  0.00000000E+00
  2.86323564E-33  0.00000000E+00  0.00000000E+00  0.00000000E+00  7.21021111E-35
  7.21021111E-35 -1.33345471E-34  0.00000000E+00  1.97629842E-20 -4.52631888E-20
  0.00000000E+00  0.00000000E+00  0.00000000E+00 -4.79589840E-20  0.00000000E+00
  0.00000000E+00  0.00000000E+00  1.70646125E-21  0.00000000E+00  0.00000000E+00
  0.00000000E+00 -1.53131140E-21 -1.53131140E-21  4.98675263E-21  0.00000000E+00
  9.21719642E-37 -1.97629842E-20  4.52631888E-20  0.00000000E+00  0.00000000E+00
  0.00000000E+00  4.79589840E-20  0.00000000E+00  0.00000000E+00  0.00000000E+00
 -1.70646125E-21  0.00000000E+00  0.00000000E+00  0.00000000E+00  1.53131140E-21
  1.53131140E-21 -4.98675263E-21  0.00000000E+00  0.00000000E+00  9.21719642E-37
Spin SCF Density                           R   N=         190
  1.14223544E-03 -3.54450290E-03  2.25212881E-02  0.00000000E+00  0.00000000E+00
  2.66532549E-01  0.00000000E+00  0.00000000E+00 -1.54074396E-33  2.66532549E-01
  0.00000000E+00  0.00000000E+00 -2.78497720E-18  2.78497720E-18  8.46040318E-02
 -5.53268572E-03  1.84192437E-02  0.00000000E+00  0.00000000E+00  0.00000000E+00
  1.34395505E-02  0.00000000E+00  0.00000000E+00  1.40177172E-01  2.04148574E-32
 -1.09648799E-18  0.00000000E+00  7.37232265E-02  0.00000000E+00  0.00000000E+00
  2.04148574E-32  1.40177172E-01  1.09648799E-18  0.00000000E+00  2.19556014E-32
  7.37232265E-02  0.00000000E+00  0.00000000E+00 -1.09648799E-18  1.09648799E-18
  6.85491407E-02  0.00000000E+00 -5.30876574E-19  5.30876574E-19  3.90437369E-02
  1.08769182E-02 -2.14416702E-02  0.00000000E+00  0.00000000E+00  0.00000000E+00
 -2.60314738E-02  0.00000000E+00  0.00000000E+00  0.00000000E+00 -1.27819414E-02
  0.00000000E+00  0.00000000E+00  2.59915132E-01 -2.77333912E-32 -4.20713450E-18
  0.00000000E+00  1.36696881E-01  6.93334780E-33 -1.26968467E-18  0.00000000E+00
  2.53462012E-01  0.00000000E+00  0.00000000E+00 -2.77333912E-32  2.59915132E-01
  4.20713450E-18  0.00000000E+00  6.93334780E-33  1.36696881E-01  1.26968467E-18
  0.00000000E+00 -5.08445505E-32  2.53462012E-01  0.00000000E+00  0.00000000E+00
 -4.20713450E-18  4.20713450E-18 -1.49157494E-02  0.00000000E+00 -1.26968467E-18
  1.26968467E-18  5.37547843E-02  0.00000000E+00 -7.86222217E-18  7.86222217E-18
 -2.60137317E-01 -3.50632138E-03  4.39788002E-03  0.00000000E+00  0.00000000E+00
  0.00000000E+00  5.25464923E-03  0.00000000E+00  0.00000000E+00  0.00000000E+00
  1.74282986E-03  0.00000000E+00  0.00000000E+00  0.00000000E+00 -1.67377574E-04
 -3.50632138E-03  4.39788002E-03  0.00000000E+00  0.00000000E+00  0.00000000E+00
  5.25464923E-03  0.00000000E+00  0.00000000E+00  0.00000000E+00  1.74282986E-03
  0.00000000E+00  0.00000000E+00  0.00000000E+00 -1.67377574E-04 -1.67377574E-04
  1.94862110E-03 -8.36255887E-03  0.00000000E+00  0.00000000E+00  0.00000000E+00
 -9.13368999E-03  0.00000000E+00  0.00000000E+00  0.00000000E+00 -1.46384127E-03
  0.00000000E+00  0.00000000E+00  0.00000000E+00  7.62277620E-05  7.62277620E-05
  4.46533029E-04 -2.49351687E-32  4.49639189E-33  0.00000000E+00  0.00000000E+00
  0.00000000E+00  6.43533059E-33  0.00000000E+00  0.00000000E+00  0.00000000E+00
  7.08859310E-34  0.00000000E+00  0.00000000E+00  0.00000000E+00  2.68428341E-34
  2.70165742E-34 -9.42539646E-35 -2.45685827E-52  9.64229487E-20 -2.25556759E-19
  0.00000000E+00  0.00000000E+00  0.00000000E+00 -2.54331938E-19  0.00000000E+00
  0.00000000E+00  0.00000000E+00 -5.66819334E-20  0.00000000E+00  0.00000000E+00
  0.00000000E+00  4.30602979E-21  4.30602979E-21  6.54560995E-21  0.00000000E+00
  3.16699101E-37 -9.64229487E-20  2.25556759E-19  0.00000000E+00  0.00000000E+00
  0.00000000E+00  2.54331938E-19  0.00000000E+00  0.00000000E+00  0.00000000E+00
  5.66819334E-20  0.00000000E+00  0.00000000E+00  0.00000000E+00 -4.30602979E-21
 -4.30602979E-21 -6.54560995E-21  0.00000000E+00  0.00000000E+00  3.16699101E-37
Mulliken Charges                           R   N=           1
 -2.00000000E+00
ONIOM Charges                              I   N=          16
          -2           0           0           0           0           0
           0           0           0           0           0           0
           0           0           0           0
ONIOM Multiplicities                       I   N=          16
           3           0           0           0           0           0
           0           0           0           0           0           0
           0           0           0           0
Atom Layers                                I   N=           1
           1
Atom Modifiers                             I   N=           1
           0
Force Field                                I                0
Int Atom Modified Types                    I   N=           1
           0
Link Atoms                                 I   N=           1
           0
Atom Modified MM Charges                   R   N=           1
  0.00000000E+00
Link Distances                             R   N=           4
  0.00000000E+00  0.00000000E+00  0.00000000E+00  0.00000000E+00
Cartesian Gradient                         R   N=           3
  0.00000000E+00  0.00000000E+00  0.00000000E+00
Dipole Moment                              R   N=           3
  0.00000000E+00  0.00000000E+00  0.00000000E+00
Quadrupole Moment                          R   N=           6
  2.88840352E+00  2.88840352E+00 -5.77680705E+00  4.35118255E-31 -1.32647780E-16
  1.32647780E-16
Anisotropic Hyperfine tensors              R   N=           6
  2.77605768E-01  0.00000000E+00  2.77605768E-01  0.00000000E+00  0.00000000E+00
 -5.55211537E-01
Isotropic Hyperfine splittings             R   N=           1
  6.44975157E-02
QEq coupling tensors                       R   N=           6
 -1.65148530E-01  0.00000000E+00 -1.65148530E-01  0.00000000E+00  0.00000000E+00
  3.30297061E-01
