fubar
SP        RPBEPBE                                                     6-31+G(d,p)
Number of atoms                            I                1
Info1-9                                    I   N=           9
          11          10           0           0           0         110
           1          18         902
Charge                                     I                2
Multiplicity                               I                1
Number of electrons                        I                4
Number of alpha electrons                  I                2
Number of beta electrons                   I                2
Number of basis functions                  I               19
Number of independent functions            I               19
Number of point charges in /Mol/           I                0
Number of translation vectors              I                0
Atomic numbers                             I   N=           1
           6
Nuclear charges                            R   N=           1
  6.00000000E+00
Current cartesian coordinates              R   N=           3
  0.00000000E+00  0.00000000E+00  0.00000000E+00
Force Field                                I                0
Int Atom Types                             I   N=           1
           0
MM charges                                 R   N=           1
  0.00000000E+00
Integer atomic weights                     I   N=           1
          12
Real atomic weights                        R   N=           1
  1.20000000E+01
Atom fragment info                         I   N=           1
           0
Atom residue num                           I   N=           1
           0
Nuclear spins                              I   N=           1
           0
Nuclear ZEff                               R   N=           1
 -3.60000000E+00
Nuclear ZNuc                               R   N=           1
  6.00000000E+00
Nuclear QMom                               R   N=           1
  0.00000000E+00
Nuclear GFac                               R   N=           1
  0.00000000E+00
MicOpt                                     I   N=           1
          -1
Number of contracted shells                I                5
Number of primitive shells                 I               12
Pure/Cartesian d shells                    I                1
Pure/Cartesian f shells                    I                0
Highest angular momentum                   I                2
Largest degree of contraction              I                6
Shell types                                I   N=           5
           0          -1          -1          -1           2
Number of primitives per shell             I   N=           5
           6           3           1           1           1
Shell to atom map                          I   N=           5
           1           1           1           1           1
Primitive exponents                        R   N=          12
  3.04752488E+03  4.57369518E+02  1.03948685E+02  2.92101553E+01  9.28666296E+00
  3.16392696E+00  7.86827235E+00  1.88128854E+00  5.44249258E-01  1.68714478E-01
  4.38000000E-02  8.00000000E-01
Contraction coefficients                   R   N=          12
  1.83473713E-03  1.40373228E-02  6.88426223E-02  2.32184443E-01  4.67941348E-01
  3.62311985E-01 -1.19332420E-01 -1.60854152E-01  1.14345644E+00  1.00000000E+00
  1.00000000E+00  1.00000000E+00
P(S=P) Contraction coefficients            R   N=          12
  0.00000000E+00  0.00000000E+00  0.00000000E+00  0.00000000E+00  0.00000000E+00
  0.00000000E+00  6.89990666E-02  3.16423961E-01  7.44308291E-01  1.00000000E+00
  1.00000000E+00  0.00000000E+00
Coordinates of each shell                  R   N=          15
  0.00000000E+00  0.00000000E+00  0.00000000E+00  0.00000000E+00  0.00000000E+00
  0.00000000E+00  0.00000000E+00  0.00000000E+00  0.00000000E+00  0.00000000E+00
  0.00000000E+00  0.00000000E+00  0.00000000E+00  0.00000000E+00  0.00000000E+00
Constraint Structure                       R   N=           3
  0.00000000E+00  0.00000000E+00  0.00000000E+00
Num ILSW                                   I              100
ILSW                                       I   N=         100
           0           1           0           0           2           0
           0           0           0           0        1009          -1
           0           0           0           0           0           0
           0           0           0           0           0           0
           1           0           0           0           0           0
           0           0      100000           0          -1           0
           0           0           0           0           0           0
           0           0           0           1           0           0
           0           0           1           0           0           0
           0           0           4          41           0           0
           0           0           0           0           0           0
           0           0           0           1           0           0
           0           0           0           0           0           0
           0           0           0           0           0           0
           0           0           0           0           0           0
           0           0           0           0           0           0
           0           0           0           0
Num RLSW                                   I               41
RLSW                                       R   N=          41
  1.00000000E+00  1.00000000E+00  1.00000000E+00  1.00000000E+00  0.00000000E+00
  0.00000000E+00  0.00000000E+00  1.00000000E+00  0.00000000E+00  0.00000000E+00
  0.00000000E+00  0.00000000E+00  1.00000000E+00  0.00000000E+00  0.00000000E+00
  0.00000000E+00  0.00000000E+00  1.00000000E+00  0.00000000E+00  0.00000000E+00
  0.00000000E+00  0.00000000E+00  1.00000000E+00  0.00000000E+00  0.00000000E+00
  0.00000000E+00  0.00000000E+00  1.00000000E+00  0.00000000E+00  0.00000000E+00
  0.00000000E+00  0.00000000E+00  1.00000000E+00  0.00000000E+00  0.00000000E+00
  0.00000000E+00  0.00000000E+00  0.00000000E+00  1.00000000E+00  1.00000000E+00
  0.00000000E+00
MxBond                                     I                1
NBond                                      I   N=           1
           0
IBond                                      I   N=           1
           0
RBond                                      R   N=           1
  0.00000000E+00
Virial Ratio                               R      2.010612316445192E+00
SCF Energy                                 R     -3.645132889892744E+01
Total Energy                               R     -3.645132889892744E+01
RMS Density                                R      1.478463556608877E-10
External E-field                           R   N=          35
  0.00000000E+00  0.00000000E+00  0.00000000E+00  0.00000000E+00  0.00000000E+00
  0.00000000E+00  0.00000000E+00  0.00000000E+00  0.00000000E+00  0.00000000E+00
  0.00000000E+00  0.00000000E+00  0.00000000E+00  0.00000000E+00  0.00000000E+00
  0.00000000E+00  0.00000000E+00  0.00000000E+00  0.00000000E+00  0.00000000E+00
  0.00000000E+00  0.00000000E+00  0.00000000E+00  0.00000000E+00  0.00000000E+00
  0.00000000E+00  0.00000000E+00  0.00000000E+00  0.00000000E+00  0.00000000E+00
  0.00000000E+00  0.00000000E+00  0.00000000E+00  0.00000000E+00  0.00000000E+00
IOpCl                                      I                0
IROHF                                      I                0
Alpha Orbital Energies                     R   N=          19
 -1.13500063E+01 -1.48405327E+00 -1.16602719E+00 -1.16602719E+00 -1.16602719E+00
 -4.26187606E-01 -3.59218849E-01 -3.59218849E-01 -3.59218849E-01 -6.35563987E-02
 -6.35563987E-02 -6.35563987E-02  7.51471206E-02  5.97863539E-01  5.97863539E-01
  5.97863539E-01  5.97863539E-01  5.97863539E-01  2.78282494E+00
Alpha MO coefficients                      R   N=         361
  9.93210302E-01  4.52239618E-02  0.00000000E+00  0.00000000E+00  0.00000000E+00
 -7.22549441E-03  0.00000000E+00  0.00000000E+00  0.00000000E+00  1.79897734E-03
  0.00000000E+00  0.00000000E+00  0.00000000E+00 -9.01620678E-03 -9.01620678E-03
 -9.01620678E-03  0.00000000E+00  0.00000000E+00  0.00000000E+00 -2.49281118E-01
  7.71181885E-01  0.00000000E+00  0.00000000E+00  0.00000000E+00  3.87866178E-01
  0.00000000E+00  0.00000000E+00  0.00000000E+00 -3.24097273E-02  0.00000000E+00
  0.00000000E+00  0.00000000E+00 -3.10608035E-02 -3.10608035E-02 -3.10608035E-02
  0.00000000E+00  0.00000000E+00  0.00000000E+00  0.00000000E+00  0.00000000E+00
  0.00000000E+00  8.79573527E-01  0.00000000E+00  0.00000000E+00  0.00000000E+00
  1.90119365E-01  0.00000000E+00  0.00000000E+00  0.00000000E+00 -6.78744748E-04
  0.00000000E+00  0.00000000E+00  0.00000000E+00  0.00000000E+00  0.00000000E+00
  0.00000000E+00  0.00000000E+00  0.00000000E+00  0.00000000E+00  0.00000000E+00
  0.00000000E+00  8.79573527E-01  0.00000000E+00  0.00000000E+00  0.00000000E+00
  1.90119365E-01  0.00000000E+00  0.00000000E+00  0.00000000E+00 -6.78744748E-04
  0.00000000E+00  0.00000000E+00  0.00000000E+00  0.00000000E+00  0.00000000E+00
  0.00000000E+00  0.00000000E+00  0.00000000E+00  8.79573527E-01  0.00000000E+00
  0.00000000E+00  0.00000000E+00  1.90119365E-01  0.00000000E+00  0.00000000E+00
  0.00000000E+00 -6.78744748E-04  0.00000000E+00  0.00000000E+00  0.00000000E+00
  0.00000000E+00  0.00000000E+00  0.00000000E+00  0.00000000E+00  0.00000000E+00
  6.09381211E-02 -6.18519019E-01  0.00000000E+00  0.00000000E+00  0.00000000E+00
  6.46530155E-03  0.00000000E+00  0.00000000E+00  0.00000000E+00  1.07665676E+00
  0.00000000E+00  0.00000000E+00  0.00000000E+00  1.54152690E-02  1.54152690E-02
  1.54152690E-02  0.00000000E+00  0.00000000E+00  0.00000000E+00  0.00000000E+00
  0.00000000E+00  0.00000000E+00 -5.04695005E-01  0.00000000E+00  0.00000000E+00
  0.00000000E+00  4.50457417E-01  0.00000000E+00  0.00000000E+00  0.00000000E+00
  7.31485896E-01  0.00000000E+00  0.00000000E+00  0.00000000E+00  0.00000000E+00
  0.00000000E+00  0.00000000E+00  0.00000000E+00  0.00000000E+00  0.00000000E+00
  0.00000000E+00  0.00000000E+00 -5.04695005E-01  0.00000000E+00  0.00000000E+00
  0.00000000E+00  4.50457417E-01  0.00000000E+00  0.00000000E+00  0.00000000E+00
  7.31485896E-01  0.00000000E+00  0.00000000E+00  0.00000000E+00  0.00000000E+00
  0.00000000E+00  0.00000000E+00  0.00000000E+00  0.00000000E+00 -5.04695005E-01
  0.00000000E+00  0.00000000E+00  0.00000000E+00  4.50457417E-01  0.00000000E+00
  0.00000000E+00  0.00000000E+00  7.31485896E-01  0.00000000E+00  0.00000000E+00
  0.00000000E+00  0.00000000E+00  0.00000000E+00  0.00000000E+00  0.00000000E+00
  0.00000000E+00  0.00000000E+00  0.00000000E+00  0.00000000E+00  0.00000000E+00
 -7.46318946E-01  0.00000000E+00  0.00000000E+00  0.00000000E+00  1.45647049E+00
  0.00000000E+00  0.00000000E+00  0.00000000E+00 -1.05047944E+00  0.00000000E+00
  0.00000000E+00  0.00000000E+00  0.00000000E+00  0.00000000E+00  0.00000000E+00
  0.00000000E+00  0.00000000E+00  0.00000000E+00 -7.46318946E-01  0.00000000E+00
  0.00000000E+00  0.00000000E+00  1.45647049E+00  0.00000000E+00  0.00000000E+00
  0.00000000E+00 -1.05047944E+00  0.00000000E+00  0.00000000E+00  0.00000000E+00
  0.00000000E+00  0.00000000E+00  0.00000000E+00  0.00000000E+00  0.00000000E+00
  0.00000000E+00 -7.46318946E-01  0.00000000E+00  0.00000000E+00  0.00000000E+00
  1.45647049E+00  0.00000000E+00  0.00000000E+00  0.00000000E+00 -1.05047944E+00
  0.00000000E+00  0.00000000E+00  0.00000000E+00  0.00000000E+00  0.00000000E+00
  0.00000000E+00  0.00000000E+00  0.00000000E+00 -4.23160627E-03 -1.70297713E+00
  0.00000000E+00  0.00000000E+00  0.00000000E+00  2.57794871E+00  0.00000000E+00
  0.00000000E+00  0.00000000E+00 -1.26183483E+00  0.00000000E+00  0.00000000E+00
  0.00000000E+00 -7.43127309E-03 -7.43127309E-03 -7.43127309E-03  0.00000000E+00
  0.00000000E+00  0.00000000E+00  0.00000000E+00  0.00000000E+00  0.00000000E+00
  0.00000000E+00  0.00000000E+00  0.00000000E+00  0.00000000E+00  0.00000000E+00
  0.00000000E+00  0.00000000E+00  0.00000000E+00  0.00000000E+00  0.00000000E+00
  0.00000000E+00  0.00000000E+00  0.00000000E+00  0.00000000E+00  0.00000000E+00
  1.00000000E+00  0.00000000E+00  0.00000000E+00  0.00000000E+00  0.00000000E+00
  0.00000000E+00  0.00000000E+00  0.00000000E+00  0.00000000E+00  0.00000000E+00
  0.00000000E+00  0.00000000E+00  0.00000000E+00  0.00000000E+00  0.00000000E+00
  0.00000000E+00  0.00000000E+00  1.00000000E+00  0.00000000E+00  0.00000000E+00
  0.00000000E+00  0.00000000E+00  0.00000000E+00  0.00000000E+00  0.00000000E+00
  0.00000000E+00  0.00000000E+00  0.00000000E+00  0.00000000E+00  0.00000000E+00
  0.00000000E+00  0.00000000E+00  0.00000000E+00  0.00000000E+00  0.00000000E+00
  0.00000000E+00  0.00000000E+00  1.00000000E+00  0.00000000E+00  2.28838963E-17
 -4.68710567E-15  0.00000000E+00  0.00000000E+00  0.00000000E+00  5.59348929E-15
  0.00000000E+00  0.00000000E+00  0.00000000E+00 -2.06727012E-15  0.00000000E+00
  0.00000000E+00  0.00000000E+00 -8.48924201E-01 -3.32449848E-02  8.82169186E-01
  0.00000000E+00  0.00000000E+00  0.00000000E+00 -1.55904977E-16 -7.57231486E-16
  0.00000000E+00  0.00000000E+00  0.00000000E+00  2.99340230E-15  0.00000000E+00
  0.00000000E+00  0.00000000E+00 -2.23546465E-15  0.00000000E+00  0.00000000E+00
  0.00000000E+00 -5.28514618E-01  9.99447233E-01 -4.70932615E-01  0.00000000E+00
  0.00000000E+00  0.00000000E+00 -4.48340597E-01  2.99941789E+00  0.00000000E+00
  0.00000000E+00  0.00000000E+00  1.29215435E+00  0.00000000E+00  0.00000000E+00
  0.00000000E+00 -3.77722771E-01  0.00000000E+00  0.00000000E+00  0.00000000E+00
 -1.79153048E+00 -1.79153048E+00 -1.79153048E+00  0.00000000E+00  0.00000000E+00
  0.00000000E+00
Total SCF Density                          R   N=         190
  2.09721556E+00 -2.94648355E-01  1.19353341E+00  0.00000000E+00  0.00000000E+00
  0.00000000E+00  0.00000000E+00  0.00000000E+00  0.00000000E+00  0.00000000E+00
  0.00000000E+00  0.00000000E+00  0.00000000E+00  0.00000000E+00  0.00000000E+00
 -2.07728300E-01  5.97577210E-01  0.00000000E+00  0.00000000E+00  0.00000000E+00
  3.00984760E-01  0.00000000E+00  0.00000000E+00  0.00000000E+00  0.00000000E+00
  0.00000000E+00  0.00000000E+00  0.00000000E+00  0.00000000E+00  0.00000000E+00
  0.00000000E+00  0.00000000E+00  0.00000000E+00  0.00000000E+00  0.00000000E+00
  0.00000000E+00  0.00000000E+00  0.00000000E+00  0.00000000E+00  0.00000000E+00
  0.00000000E+00  0.00000000E+00  0.00000000E+00  0.00000000E+00  0.00000000E+00
  1.97317918E-02 -4.98248754E-02  0.00000000E+00  0.00000000E+00  0.00000000E+00
 -2.51672711E-02  0.00000000E+00  0.00000000E+00  0.00000000E+00  2.10725349E-03
  0.00000000E+00  0.00000000E+00  0.00000000E+00  0.00000000E+00  0.00000000E+00
  0.00000000E+00  0.00000000E+00  0.00000000E+00  0.00000000E+00  0.00000000E+00
  0.00000000E+00  0.00000000E+00  0.00000000E+00  0.00000000E+00  0.00000000E+00
  0.00000000E+00  0.00000000E+00  0.00000000E+00  0.00000000E+00  0.00000000E+00
  0.00000000E+00  0.00000000E+00  0.00000000E+00  0.00000000E+00  0.00000000E+00
  0.00000000E+00  0.00000000E+00  0.00000000E+00  0.00000000E+00  0.00000000E+00
  0.00000000E+00  0.00000000E+00  0.00000000E+00  0.00000000E+00  0.00000000E+00
  0.00000000E+00 -2.42423529E-03 -4.87225552E-02  0.00000000E+00  0.00000000E+00
  0.00000000E+00 -2.39645772E-02  0.00000000E+00  0.00000000E+00  0.00000000E+00
  1.98090444E-03  0.00000000E+00  0.00000000E+00  0.00000000E+00  2.09213100E-03
 -2.42423529E-03 -4.87225552E-02  0.00000000E+00  0.00000000E+00  0.00000000E+00
 -2.39645772E-02  0.00000000E+00  0.00000000E+00  0.00000000E+00  1.98090444E-03
  0.00000000E+00  0.00000000E+00  0.00000000E+00  2.09213100E-03  2.09213100E-03
 -2.42423529E-03 -4.87225552E-02  0.00000000E+00  0.00000000E+00  0.00000000E+00
 -2.39645772E-02  0.00000000E+00  0.00000000E+00  0.00000000E+00  1.98090444E-03
  0.00000000E+00  0.00000000E+00  0.00000000E+00  2.09213100E-03  2.09213100E-03
  2.09213100E-03 -1.53161099E-20 -3.07824910E-19  0.00000000E+00  0.00000000E+00
  0.00000000E+00 -1.51406136E-19  0.00000000E+00  0.00000000E+00  0.00000000E+00
  1.25151838E-20  0.00000000E+00  0.00000000E+00  0.00000000E+00  1.32179036E-20
  1.32179036E-20  1.32179036E-20  4.29994637E-35  7.77865788E-23  1.56336346E-21
  0.00000000E+00  0.00000000E+00  0.00000000E+00  7.68952783E-22  0.00000000E+00
  0.00000000E+00  0.00000000E+00 -6.35613961E-23  0.00000000E+00  0.00000000E+00
  0.00000000E+00 -6.71303291E-23 -6.71303291E-23 -6.71303291E-23  6.93928387E-38
  1.54656481E-35 -2.75965486E-21 -5.54638557E-20  0.00000000E+00  0.00000000E+00
  0.00000000E+00 -2.72803396E-20  0.00000000E+00  0.00000000E+00  0.00000000E+00
  2.25498432E-21  0.00000000E+00  0.00000000E+00  0.00000000E+00  2.38160029E-21
  2.38160029E-21  2.38160029E-21  4.04451103E-37 -3.41416712E-36  1.68982873E-35
Mulliken Charges                           R   N=           1
  2.00000000E+00
ONIOM Charges                              I   N=          16
           2           0           0           0           0           0
           0           0           0           0           0           0
           0           0           0           0
ONIOM Multiplicities                       I   N=          16
           1           0           0           0           0           0
           0           0           0           0           0           0
           0           0           0           0
Atom Layers                                I   N=           1
           1
Atom Modifiers                             I   N=           1
           0
Force Field                                I                0
Int Atom Modified Types                    I   N=           1
           0
Link Atoms                                 I   N=           1
           0
Atom Modified MM Charges                   R   N=           1
  0.00000000E+00
Link Distances                             R   N=           4
  0.00000000E+00  0.00000000E+00  0.00000000E+00  0.00000000E+00
Cartesian Gradient                         R   N=           3
  0.00000000E+00  0.00000000E+00  0.00000000E+00
Dipole Moment                              R   N=           3
  0.00000000E+00  0.00000000E+00  0.00000000E+00
Quadrupole Moment                          R   N=           6
  0.00000000E+00  0.00000000E+00  0.00000000E+00  4.22456498E-19 -2.14554779E-21
  7.61181616E-20
QEq coupling tensors                       R   N=           6
  1.89478063E-14  0.00000000E+00  1.89478063E-14  0.00000000E+00  0.00000000E+00
  1.89478063E-14
