fubar
SP        UPBEPBE                                                     6-31+G(d,p)
Number of atoms                            I                1
Info1-9                                    I   N=           9
          11          10           0           0           0         110
           1          18         902
Full Title                                 C   N=           1
fubar
Route                                      C   N=           3
#PBEPBE/6-31+g** scf=tight
Charge                                     I                0
Multiplicity                               I                2
Number of electrons                        I                5
Number of alpha electrons                  I                3
Number of beta electrons                   I                2
Number of basis functions                  I               19
Number of independent functions            I               19
Number of point charges in /Mol/           I                0
Number of translation vectors              I                0
Atomic numbers                             I   N=           1
           5
Nuclear charges                            R   N=           1
  5.00000000E+00
Current cartesian coordinates              R   N=           3
  0.00000000E+00  0.00000000E+00  0.00000000E+00
Number of symbols in /Mol/                 I                0
Int Atom Types                             I   N=           1
           0
Force Field                                I                0
Atom Types                                 C   N=           1

MM charges                                 R   N=           1
  0.00000000E+00
Integer atomic weights                     I   N=           1
          11
Real atomic weights                        R   N=           1
  1.10093053E+01
Atom fragment info                         I   N=           1
           0
Atom residue num                           I   N=           1
           0
Nuclear spins                              I   N=           1
           3
Nuclear ZEff                               R   N=           1
 -2.75000000E+00
Nuclear ZNuc                               R   N=           1
  5.00000000E+00
Nuclear QMom                               R   N=           1
  4.05900000E+00
Nuclear GFac                               R   N=           1
  2.68863700E+00
MicOpt                                     I   N=           1
          -1
Number of residues                         I                0
Number of secondary structures             I                0
SymInf integers                            I   N=          26
           1           8           1           1           1           1
          -1          -1          -1           1          -1          -1
          -1           1          -1          -1          -1          -1
           1           1           1          -1           1           1
           1          -1
RotTr to input orientation                 R   N=          12
  0.00000000E+00  0.00000000E+00 -1.00000000E+00  0.00000000E+00  1.00000000E+00
  0.00000000E+00  1.00000000E+00  0.00000000E+00  0.00000000E+00  0.00000000E+00
  0.00000000E+00  0.00000000E+00
Number of contracted shells                I                5
Number of primitive shells                 I               12
Pure/Cartesian d shells                    I                1
Pure/Cartesian f shells                    I                0
Highest angular momentum                   I                2
Largest degree of contraction              I                6
Shell types                                I   N=           5
           0          -1          -1          -1           2
Number of primitives per shell             I   N=           5
           6           3           1           1           1
Shell to atom map                          I   N=           5
           1           1           1           1           1
Primitive exponents                        R   N=          12
  2.06888225E+03  3.10649570E+02  7.06830330E+01  1.98610803E+01  6.29930484E+00
  2.12702697E+00  4.72797107E+00  1.19033774E+00  3.59411683E-01  1.26751247E-01
  3.15000000E-02  6.00000000E-01
Contraction coefficients                   R   N=          12
  1.86627459E-03  1.42514817E-02  6.95516185E-02  2.32572933E-01  4.67078712E-01
  3.63431440E-01 -1.30393797E-01 -1.30788951E-01  1.13094448E+00  1.00000000E+00
  1.00000000E+00  1.00000000E+00
P(S=P) Contraction coefficients            R   N=          12
  0.00000000E+00  0.00000000E+00  0.00000000E+00  0.00000000E+00  0.00000000E+00
  0.00000000E+00  7.45975799E-02  3.07846677E-01  7.43456834E-01  1.00000000E+00
  1.00000000E+00  0.00000000E+00
Coordinates of each shell                  R   N=          15
  0.00000000E+00  0.00000000E+00  0.00000000E+00  0.00000000E+00  0.00000000E+00
  0.00000000E+00  0.00000000E+00  0.00000000E+00  0.00000000E+00  0.00000000E+00
  0.00000000E+00  0.00000000E+00  0.00000000E+00  0.00000000E+00  0.00000000E+00
Num ILSW                                   I              100
ILSW                                       I   N=         100
           1           1           0           0           2           0
           0           0           0           0        1009          -1
           5           0           0           0           0           0
           0           0           0           0           0           0
           1           0           0           0           0           0
           0           0      100000           0          -1           0
           0           0           0           0           0           0
           0           0           0           1           0           0
           0 -2000000000           1           0           0           0
           0           1           4          52           0           0
           0           0           0           0           0           0
           0           0           0           1           0           1
           0           0           0           0           0           0
           0           0           0           0           0           0
           0           0           0           0           0           0
           0           0           0           0           0           0
           0           0           0           0
Num RLSW                                   I               52
RLSW                                       R   N=          52
  1.00000000E+00  1.00000000E+00  1.00000000E+00  1.00000000E+00  0.00000000E+00
  0.00000000E+00  0.00000000E+00  1.00000000E+00  0.00000000E+00  0.00000000E+00
  0.00000000E+00  0.00000000E+00  1.00000000E+00  0.00000000E+00  0.00000000E+00
  0.00000000E+00  0.00000000E+00  1.00000000E+00  0.00000000E+00  0.00000000E+00
  0.00000000E+00  0.00000000E+00  1.00000000E+00  0.00000000E+00  0.00000000E+00
  0.00000000E+00  0.00000000E+00  1.00000000E+00  0.00000000E+00  0.00000000E+00
  0.00000000E+00  0.00000000E+00  1.00000000E+00  0.00000000E+00  0.00000000E+00
  0.00000000E+00  0.00000000E+00  0.00000000E+00  1.00000000E+00  1.00000000E+00
  0.00000000E+00  1.00000000E+00  0.00000000E+00  0.00000000E+00  0.00000000E+00
  0.00000000E+00  0.00000000E+00  0.00000000E+00  0.00000000E+00  0.00000000E+00
  0.00000000E+00  0.00000000E+00
MxBond                                     I                1
NBond                                      I   N=           1
           0
IBond                                      I   N=           1
           0
RBond                                      R   N=           1
  0.00000000E+00
Virial Ratio                               R      2.007903816068954E+00
SCF Energy                                 R     -2.460638088642045E+01
Total Energy                               R     -2.460638088642045E+01
S**2                                       R      7.515072830145104E-01
S**2 after annihilation                    R      7.500000007970766E-01
RMS Density                                R      4.997757931273247E-09
Job Status                                 I                1
Nuclear derivative order                   I                0
External E-field                           R   N=          35
  0.00000000E+00  0.00000000E+00  0.00000000E+00  0.00000000E+00  0.00000000E+00
  0.00000000E+00  0.00000000E+00  0.00000000E+00  0.00000000E+00  0.00000000E+00
  0.00000000E+00  0.00000000E+00  0.00000000E+00  0.00000000E+00  0.00000000E+00
  0.00000000E+00  0.00000000E+00  0.00000000E+00  0.00000000E+00  0.00000000E+00
  0.00000000E+00  0.00000000E+00  0.00000000E+00  0.00000000E+00  0.00000000E+00
  0.00000000E+00  0.00000000E+00  0.00000000E+00  0.00000000E+00  0.00000000E+00
  0.00000000E+00  0.00000000E+00  0.00000000E+00  0.00000000E+00  0.00000000E+00
IOpCl                                      I                1
IROHF                                      I                0
Alpha Orbital Energies                     R   N=          19
 -6.63308529E+00 -3.54658077E-01 -1.50486516E-01 -1.31792862E-01 -1.31792862E-01
  1.35836394E-02  3.77350308E-02  4.67040191E-02  4.67040191E-02  4.42761030E-01
  4.60605663E-01  4.60605663E-01  5.68656177E-01  1.16258045E+00  1.16258045E+00
  1.17276627E+00  1.18555106E+00  1.18555108E+00  3.21046288E+00
Beta Orbital Energies                      R   N=          19
 -6.62449376E+00 -3.18569312E-01 -1.19367618E-01 -1.19367618E-01 -7.56696164E-02
  3.03931015E-02  5.70281673E-02  5.70281673E-02  7.00810039E-02  4.69393754E-01
  4.69393754E-01  5.01005584E-01  5.96962116E-01  1.18482954E+00  1.18482954E+00
  1.23119186E+00  1.23119186E+00  1.24521122E+00  3.23616328E+00
Alpha MO coefficients                      R   N=         361
  9.92126617E-01  6.02391585E-02  0.00000000E+00  0.00000000E+00  0.00000000E+00
 -1.49684242E-02  0.00000000E+00  0.00000000E+00  0.00000000E+00  3.26650215E-03
  0.00000000E+00  0.00000000E+00  0.00000000E+00 -1.16311211E-02 -1.16311211E-02
 -1.10209474E-02  0.00000000E+00  0.00000000E+00  0.00000000E+00 -2.35735701E-01
  4.21587361E-01  0.00000000E+00  0.00000000E+00  0.00000000E+00  5.83086810E-01
  0.00000000E+00  0.00000000E+00  0.00000000E+00  6.44869478E-02  0.00000000E+00
  0.00000000E+00  0.00000000E+00  2.45328187E-03  2.45328187E-03  1.73477773E-02
  0.00000000E+00  0.00000000E+00  0.00000000E+00  0.00000000E+00  0.00000000E+00
  0.00000000E+00  0.00000000E+00  6.02239859E-01  0.00000000E+00  0.00000000E+00
  0.00000000E+00  4.24552659E-01  0.00000000E+00  0.00000000E+00  0.00000000E+00
  1.60290213E-01  0.00000000E+00  0.00000000E+00  0.00000000E+00  0.00000000E+00
  0.00000000E+00  0.00000000E+00  0.00000000E+00  0.00000000E+00  5.79130175E-01
  0.00000000E+00  0.00000000E+00  0.00000000E+00  4.34284650E-01  0.00000000E+00
  0.00000000E+00  0.00000000E+00  1.82925243E-01  0.00000000E+00  0.00000000E+00
  0.00000000E+00  0.00000000E+00  0.00000000E+00  0.00000000E+00  0.00000000E+00
  0.00000000E+00  0.00000000E+00  0.00000000E+00  0.00000000E+00  5.79130175E-01
  0.00000000E+00  0.00000000E+00  0.00000000E+00  4.34284650E-01  0.00000000E+00
  0.00000000E+00  0.00000000E+00  1.82925243E-01  0.00000000E+00  0.00000000E+00
  0.00000000E+00  0.00000000E+00  0.00000000E+00  0.00000000E+00  0.00000000E+00
  9.74047337E-02 -1.46304525E-01  0.00000000E+00  0.00000000E+00  0.00000000E+00
 -8.14259732E-01  0.00000000E+00  0.00000000E+00  0.00000000E+00  1.38013627E+00
  0.00000000E+00  0.00000000E+00  0.00000000E+00  9.76308120E-03  9.76308120E-03
  4.18427339E-03  0.00000000E+00  0.00000000E+00  0.00000000E+00  0.00000000E+00
  0.00000000E+00  0.00000000E+00  0.00000000E+00 -2.79771762E-01  0.00000000E+00
  0.00000000E+00  0.00000000E+00 -3.55609516E-01  0.00000000E+00  0.00000000E+00
  0.00000000E+00  1.11072582E+00  0.00000000E+00  0.00000000E+00  0.00000000E+00
  0.00000000E+00  0.00000000E+00  0.00000000E+00  0.00000000E+00  0.00000000E+00
 -2.87186776E-01  0.00000000E+00  0.00000000E+00  0.00000000E+00 -3.78556092E-01
  0.00000000E+00  0.00000000E+00  0.00000000E+00  1.11041034E+00  0.00000000E+00
  0.00000000E+00  0.00000000E+00  0.00000000E+00  0.00000000E+00  0.00000000E+00
  0.00000000E+00  0.00000000E+00  0.00000000E+00  0.00000000E+00  0.00000000E+00
 -2.87186776E-01  0.00000000E+00  0.00000000E+00  0.00000000E+00 -3.78556092E-01
  0.00000000E+00  0.00000000E+00  0.00000000E+00  1.11041034E+00  0.00000000E+00
  0.00000000E+00  0.00000000E+00  0.00000000E+00  0.00000000E+00  0.00000000E+00
  0.00000000E+00  0.00000000E+00  0.00000000E+00  0.00000000E+00  0.00000000E+00
 -1.15156969E+00  0.00000000E+00  0.00000000E+00  0.00000000E+00  1.49156806E+00
  0.00000000E+00  0.00000000E+00  0.00000000E+00 -5.82896874E-01  0.00000000E+00
  0.00000000E+00  0.00000000E+00  0.00000000E+00  0.00000000E+00  0.00000000E+00
  0.00000000E+00  0.00000000E+00 -1.16155492E+00  0.00000000E+00  0.00000000E+00
  0.00000000E+00  1.48309491E+00  0.00000000E+00  0.00000000E+00  0.00000000E+00
 -5.76802211E-01  0.00000000E+00  0.00000000E+00  0.00000000E+00  0.00000000E+00
  0.00000000E+00  0.00000000E+00  0.00000000E+00  0.00000000E+00  0.00000000E+00
  0.00000000E+00  0.00000000E+00 -1.16155492E+00  0.00000000E+00  0.00000000E+00
  0.00000000E+00  1.48309491E+00  0.00000000E+00  0.00000000E+00  0.00000000E+00
 -5.76802211E-01  0.00000000E+00  0.00000000E+00  0.00000000E+00  0.00000000E+00
  0.00000000E+00  0.00000000E+00  0.00000000E+00  1.54577667E-02 -1.99335076E+00
  0.00000000E+00  0.00000000E+00  0.00000000E+00  2.64147354E+00  0.00000000E+00
  0.00000000E+00  0.00000000E+00 -8.95187554E-01  0.00000000E+00  0.00000000E+00
  0.00000000E+00 -5.75866837E-02 -5.75866837E-02 -7.63241785E-02  0.00000000E+00
  0.00000000E+00  0.00000000E+00  0.00000000E+00  0.00000000E+00  0.00000000E+00
  0.00000000E+00  0.00000000E+00  0.00000000E+00  0.00000000E+00  0.00000000E+00
  0.00000000E+00  0.00000000E+00  0.00000000E+00  0.00000000E+00  0.00000000E+00
  0.00000000E+00  0.00000000E+00  0.00000000E+00  0.00000000E+00  0.00000000E+00
  1.00000000E+00  0.00000000E+00  0.00000000E+00  0.00000000E+00  0.00000000E+00
  0.00000000E+00  0.00000000E+00  0.00000000E+00  0.00000000E+00  0.00000000E+00
  0.00000000E+00  0.00000000E+00  0.00000000E+00  0.00000000E+00  0.00000000E+00
  0.00000000E+00  0.00000000E+00  0.00000000E+00  1.00000000E+00  0.00000000E+00
  1.54237199E-03 -2.13671345E-02  0.00000000E+00  0.00000000E+00  0.00000000E+00
  2.54387907E-02  0.00000000E+00  0.00000000E+00  0.00000000E+00 -7.11410950E-03
  0.00000000E+00  0.00000000E+00  0.00000000E+00 -5.04893011E-01 -5.04893011E-01
  9.94902503E-01  0.00000000E+00  0.00000000E+00  0.00000000E+00 -3.47962456E-16
  5.24880786E-15  0.00000000E+00  0.00000000E+00  0.00000000E+00 -3.94641620E-15
  0.00000000E+00  0.00000000E+00  0.00000000E+00  1.15513349E-15  0.00000000E+00
  0.00000000E+00  0.00000000E+00  8.66025404E-01 -8.66025404E-01 -7.88628801E-14
  0.00000000E+00  0.00000000E+00  0.00000000E+00  0.00000000E+00  0.00000000E+00
  0.00000000E+00  0.00000000E+00  0.00000000E+00  0.00000000E+00  0.00000000E+00
  0.00000000E+00  0.00000000E+00  0.00000000E+00  0.00000000E+00  0.00000000E+00
  0.00000000E+00  0.00000000E+00  0.00000000E+00  0.00000000E+00  1.00000000E+00
  0.00000000E+00  0.00000000E+00 -4.75730589E-01  4.15009844E+00  0.00000000E+00
  0.00000000E+00  0.00000000E+00  6.26246452E-01  0.00000000E+00  0.00000000E+00
  0.00000000E+00 -2.11289379E-01  0.00000000E+00  0.00000000E+00  0.00000000E+00
 -2.06306480E+00 -2.06306480E+00 -2.06606144E+00  0.00000000E+00  0.00000000E+00
  0.00000000E+00
Beta MO coefficients                       R   N=         361
  9.92429481E-01  5.79093831E-02  0.00000000E+00  0.00000000E+00  0.00000000E+00
 -1.47477618E-02  0.00000000E+00  0.00000000E+00  0.00000000E+00  3.24935688E-03
  0.00000000E+00  0.00000000E+00  0.00000000E+00 -1.04061675E-02 -1.04061675E-02
 -1.13827766E-02  0.00000000E+00  0.00000000E+00  0.00000000E+00 -2.34494081E-01
  4.17620161E-01  0.00000000E+00  0.00000000E+00  0.00000000E+00  5.83202292E-01
  0.00000000E+00  0.00000000E+00  0.00000000E+00  7.88365788E-02  0.00000000E+00
  0.00000000E+00  0.00000000E+00  1.75835602E-02  1.75835602E-02 -2.19645461E-02
  0.00000000E+00  0.00000000E+00  0.00000000E+00  0.00000000E+00  0.00000000E+00
  5.84099835E-01  0.00000000E+00  0.00000000E+00  0.00000000E+00  4.26198219E-01
  0.00000000E+00  0.00000000E+00  0.00000000E+00  1.88293395E-01  0.00000000E+00
  0.00000000E+00  0.00000000E+00  0.00000000E+00  0.00000000E+00  0.00000000E+00
  0.00000000E+00  0.00000000E+00  0.00000000E+00  0.00000000E+00  0.00000000E+00
  5.84099835E-01  0.00000000E+00  0.00000000E+00  0.00000000E+00  4.26198219E-01
  0.00000000E+00  0.00000000E+00  0.00000000E+00  1.88293395E-01  0.00000000E+00
  0.00000000E+00  0.00000000E+00  0.00000000E+00  0.00000000E+00  0.00000000E+00
  0.00000000E+00  0.00000000E+00  0.00000000E+00  0.00000000E+00  0.00000000E+00
  5.31349130E-01  0.00000000E+00  0.00000000E+00  0.00000000E+00  4.16365654E-01
  0.00000000E+00  0.00000000E+00  0.00000000E+00  2.82686138E-01  0.00000000E+00
  0.00000000E+00  0.00000000E+00  0.00000000E+00  0.00000000E+00  0.00000000E+00
  1.00354870E-01 -1.40486752E-01  0.00000000E+00  0.00000000E+00  0.00000000E+00
 -8.39047464E-01  0.00000000E+00  0.00000000E+00  0.00000000E+00  1.38500147E+00
  0.00000000E+00  0.00000000E+00  0.00000000E+00  4.28342942E-03  4.28342942E-03
  1.86266995E-02  0.00000000E+00  0.00000000E+00  0.00000000E+00  0.00000000E+00
  0.00000000E+00 -2.91589986E-01  0.00000000E+00  0.00000000E+00  0.00000000E+00
 -3.75629728E-01  0.00000000E+00  0.00000000E+00  0.00000000E+00  1.10845688E+00
  0.00000000E+00  0.00000000E+00  0.00000000E+00  0.00000000E+00  0.00000000E+00
  0.00000000E+00  0.00000000E+00  0.00000000E+00  0.00000000E+00  0.00000000E+00
  0.00000000E+00 -2.91589986E-01  0.00000000E+00  0.00000000E+00  0.00000000E+00
 -3.75629728E-01  0.00000000E+00  0.00000000E+00  0.00000000E+00  1.10845688E+00
  0.00000000E+00  0.00000000E+00  0.00000000E+00  0.00000000E+00  0.00000000E+00
  0.00000000E+00  0.00000000E+00  0.00000000E+00  0.00000000E+00  0.00000000E+00
  0.00000000E+00 -3.16869945E-01  0.00000000E+00  0.00000000E+00  0.00000000E+00
 -4.51706234E-01  0.00000000E+00  0.00000000E+00  0.00000000E+00  1.09959498E+00
  0.00000000E+00  0.00000000E+00  0.00000000E+00  0.00000000E+00  0.00000000E+00
  0.00000000E+00  0.00000000E+00  0.00000000E+00 -1.15796395E+00  0.00000000E+00
  0.00000000E+00  0.00000000E+00  1.48618160E+00  0.00000000E+00  0.00000000E+00
  0.00000000E+00 -5.78828553E-01  0.00000000E+00  0.00000000E+00  0.00000000E+00
  0.00000000E+00  0.00000000E+00  0.00000000E+00  0.00000000E+00  0.00000000E+00
  0.00000000E+00  0.00000000E+00  0.00000000E+00 -1.15796395E+00  0.00000000E+00
  0.00000000E+00  0.00000000E+00  1.48618160E+00  0.00000000E+00  0.00000000E+00
  0.00000000E+00 -5.78828553E-01  0.00000000E+00  0.00000000E+00  0.00000000E+00
  0.00000000E+00  0.00000000E+00  0.00000000E+00  0.00000000E+00  0.00000000E+00
  0.00000000E+00  0.00000000E+00  0.00000000E+00 -1.17657953E+00  0.00000000E+00
  0.00000000E+00  0.00000000E+00  1.46767827E+00  0.00000000E+00  0.00000000E+00
  0.00000000E+00 -5.56913803E-01  0.00000000E+00  0.00000000E+00  0.00000000E+00
  0.00000000E+00  0.00000000E+00  0.00000000E+00  1.62565724E-02 -1.99265863E+00
  0.00000000E+00  0.00000000E+00  0.00000000E+00  2.63414125E+00  0.00000000E+00
  0.00000000E+00  0.00000000E+00 -8.86686601E-01  0.00000000E+00  0.00000000E+00
  0.00000000E+00 -7.72231010E-02 -7.72231010E-02 -4.07775225E-02  0.00000000E+00
  0.00000000E+00  0.00000000E+00  0.00000000E+00  0.00000000E+00  0.00000000E+00
  0.00000000E+00  0.00000000E+00  0.00000000E+00  0.00000000E+00  0.00000000E+00
  0.00000000E+00  0.00000000E+00  0.00000000E+00  0.00000000E+00  0.00000000E+00
  0.00000000E+00  0.00000000E+00  0.00000000E+00  1.00000000E+00  0.00000000E+00
  0.00000000E+00  2.00878585E-16 -1.42015937E-15  0.00000000E+00  0.00000000E+00
  0.00000000E+00  2.03635963E-15  0.00000000E+00  0.00000000E+00  0.00000000E+00
 -4.63049073E-16  0.00000000E+00  0.00000000E+00  0.00000000E+00  8.66025404E-01
 -8.66025404E-01 -8.95254642E-15  0.00000000E+00  0.00000000E+00  0.00000000E+00
  0.00000000E+00  0.00000000E+00  0.00000000E+00  0.00000000E+00  0.00000000E+00
  0.00000000E+00  0.00000000E+00  0.00000000E+00  0.00000000E+00  0.00000000E+00
  0.00000000E+00  0.00000000E+00  0.00000000E+00  0.00000000E+00  0.00000000E+00
  0.00000000E+00  0.00000000E+00  0.00000000E+00  1.00000000E+00  0.00000000E+00
  0.00000000E+00  0.00000000E+00  0.00000000E+00  0.00000000E+00  0.00000000E+00
  0.00000000E+00  0.00000000E+00  0.00000000E+00  0.00000000E+00  0.00000000E+00
  0.00000000E+00  0.00000000E+00  0.00000000E+00  0.00000000E+00  0.00000000E+00
  0.00000000E+00  1.00000000E+00  0.00000000E+00 -9.78287354E-03  8.60766817E-02
  0.00000000E+00  0.00000000E+00  0.00000000E+00 -3.68495095E-02  0.00000000E+00
  0.00000000E+00  0.00000000E+00  9.10967316E-03  0.00000000E+00  0.00000000E+00
  0.00000000E+00 -5.10587257E-01 -5.10587257E-01  9.88351693E-01  0.00000000E+00
  0.00000000E+00  0.00000000E+00 -4.74974013E-01  4.15022847E+00  0.00000000E+00
  0.00000000E+00  0.00000000E+00  6.23735770E-01  0.00000000E+00  0.00000000E+00
  0.00000000E+00 -2.10354407E-01  0.00000000E+00  0.00000000E+00  0.00000000E+00
 -2.06097249E+00 -2.06097249E+00 -2.07008341E+00  0.00000000E+00  0.00000000E+00
  0.00000000E+00
Orthonormal basis                          R   N=         361
  6.07312040E-02  2.52111690E-01  0.00000000E+00  0.00000000E+00  0.00000000E+00
  2.50779529E-01  0.00000000E+00  0.00000000E+00  0.00000000E+00  1.67411191E-01
  0.00000000E+00  0.00000000E+00  0.00000000E+00  1.87610854E-01  1.87610854E-01
  1.87610854E-01  0.00000000E+00  0.00000000E+00  0.00000000E+00  9.96289907E-01
  2.89352924E-02  0.00000000E+00  0.00000000E+00  0.00000000E+00 -3.50646004E-02
  0.00000000E+00  0.00000000E+00  0.00000000E+00 -1.54019262E-01  0.00000000E+00
  0.00000000E+00  0.00000000E+00 -5.90278200E-02 -5.90278200E-02 -5.90278200E-02
  0.00000000E+00  0.00000000E+00  0.00000000E+00  1.19240407E-01 -3.18056307E-01
  0.00000000E+00  0.00000000E+00  0.00000000E+00  2.28215546E-01  0.00000000E+00
  0.00000000E+00  0.00000000E+00  9.53647131E-01  0.00000000E+00  0.00000000E+00
  0.00000000E+00 -2.55740160E-01 -2.55740160E-01 -2.55740160E-01  0.00000000E+00
  0.00000000E+00  0.00000000E+00 -8.26541259E-18  9.96434449E-17  0.00000000E+00
  0.00000000E+00  0.00000000E+00 -1.95282793E-16  0.00000000E+00  0.00000000E+00
  0.00000000E+00 -4.76471061E-16  0.00000000E+00  0.00000000E+00  0.00000000E+00
 -8.33609523E-01 -6.15480087E-02  8.95157531E-01  0.00000000E+00  0.00000000E+00
  0.00000000E+00  7.47312445E-18 -5.22431812E-17  0.00000000E+00  0.00000000E+00
  0.00000000E+00  4.86730027E-17  0.00000000E+00  0.00000000E+00  0.00000000E+00
  4.65560891E-17  0.00000000E+00  0.00000000E+00  0.00000000E+00 -5.52354201E-01
  9.98104124E-01 -4.45749923E-01  0.00000000E+00  0.00000000E+00  0.00000000E+00
 -1.84519472E-01 -6.86302945E-01  0.00000000E+00  0.00000000E+00  0.00000000E+00
  2.87267869E+00  0.00000000E+00  0.00000000E+00  0.00000000E+00 -1.33921742E+00
  0.00000000E+00  0.00000000E+00  0.00000000E+00 -5.54299740E-01 -5.54299740E-01
 -5.54299740E-01  0.00000000E+00  0.00000000E+00  0.00000000E+00 -4.81027622E-01
  4.55668975E+00  0.00000000E+00  0.00000000E+00  0.00000000E+00 -7.04434161E-02
  0.00000000E+00  0.00000000E+00  0.00000000E+00  1.74735284E-02  0.00000000E+00
  0.00000000E+00  0.00000000E+00 -1.96300098E+00 -1.96300098E+00 -1.96300098E+00
  0.00000000E+00  0.00000000E+00  0.00000000E+00  0.00000000E+00  0.00000000E+00
  0.00000000E+00  0.00000000E+00  0.00000000E+00  0.00000000E+00  0.00000000E+00
  0.00000000E+00  0.00000000E+00  0.00000000E+00  0.00000000E+00  0.00000000E+00
  0.00000000E+00  0.00000000E+00  0.00000000E+00  0.00000000E+00  1.00000000E+00
  0.00000000E+00  0.00000000E+00  0.00000000E+00  0.00000000E+00  0.00000000E+00
  0.00000000E+00  0.00000000E+00  0.00000000E+00  0.00000000E+00  0.00000000E+00
  0.00000000E+00  0.00000000E+00  0.00000000E+00  0.00000000E+00  0.00000000E+00
  0.00000000E+00  0.00000000E+00  0.00000000E+00  0.00000000E+00  1.00000000E+00
  0.00000000E+00  0.00000000E+00  0.00000000E+00  0.00000000E+00  0.00000000E+00
  0.00000000E+00  0.00000000E+00  0.00000000E+00  0.00000000E+00  0.00000000E+00
  0.00000000E+00  0.00000000E+00  0.00000000E+00  0.00000000E+00  0.00000000E+00
  0.00000000E+00  0.00000000E+00  0.00000000E+00  0.00000000E+00  1.00000000E+00
  0.00000000E+00  0.00000000E+00  0.00000000E+00  0.00000000E+00  3.88923426E-01
  0.00000000E+00  0.00000000E+00  0.00000000E+00  4.79994428E-01  0.00000000E+00
  0.00000000E+00  0.00000000E+00  3.65895389E-01  0.00000000E+00  0.00000000E+00
  0.00000000E+00  0.00000000E+00  0.00000000E+00  0.00000000E+00  0.00000000E+00
  0.00000000E+00  0.00000000E+00  0.00000000E+00 -7.41076485E-01  0.00000000E+00
  0.00000000E+00  0.00000000E+00 -2.33564121E-02  0.00000000E+00  0.00000000E+00
  0.00000000E+00  8.18356725E-01  0.00000000E+00  0.00000000E+00  0.00000000E+00
  0.00000000E+00  0.00000000E+00  0.00000000E+00  0.00000000E+00  0.00000000E+00
  0.00000000E+00  0.00000000E+00 -1.03277396E+00  0.00000000E+00  0.00000000E+00
  0.00000000E+00  1.51675252E+00  0.00000000E+00  0.00000000E+00  0.00000000E+00
 -8.91956499E-01  0.00000000E+00  0.00000000E+00  0.00000000E+00  0.00000000E+00
  0.00000000E+00  0.00000000E+00  0.00000000E+00  0.00000000E+00  0.00000000E+00
  3.88923426E-01  0.00000000E+00  0.00000000E+00  0.00000000E+00  4.79994428E-01
  0.00000000E+00  0.00000000E+00  0.00000000E+00  3.65895389E-01  0.00000000E+00
  0.00000000E+00  0.00000000E+00  0.00000000E+00  0.00000000E+00  0.00000000E+00
  0.00000000E+00  0.00000000E+00  0.00000000E+00  0.00000000E+00 -7.41076485E-01
  0.00000000E+00  0.00000000E+00  0.00000000E+00 -2.33564121E-02  0.00000000E+00
  0.00000000E+00  0.00000000E+00  8.18356725E-01  0.00000000E+00  0.00000000E+00
  0.00000000E+00  0.00000000E+00  0.00000000E+00  0.00000000E+00  0.00000000E+00
  0.00000000E+00  0.00000000E+00  0.00000000E+00 -1.03277396E+00  0.00000000E+00
  0.00000000E+00  0.00000000E+00  1.51675252E+00  0.00000000E+00  0.00000000E+00
  0.00000000E+00 -8.91956499E-01  0.00000000E+00  0.00000000E+00  0.00000000E+00
  0.00000000E+00  0.00000000E+00  0.00000000E+00  0.00000000E+00  0.00000000E+00
  0.00000000E+00  3.88923426E-01  0.00000000E+00  0.00000000E+00  0.00000000E+00
  4.79994428E-01  0.00000000E+00  0.00000000E+00  0.00000000E+00  3.65895389E-01
  0.00000000E+00  0.00000000E+00  0.00000000E+00  0.00000000E+00  0.00000000E+00
  0.00000000E+00  0.00000000E+00  0.00000000E+00  0.00000000E+00  0.00000000E+00
 -7.41076485E-01  0.00000000E+00  0.00000000E+00  0.00000000E+00 -2.33564121E-02
  0.00000000E+00  0.00000000E+00  0.00000000E+00  8.18356725E-01  0.00000000E+00
  0.00000000E+00  0.00000000E+00  0.00000000E+00  0.00000000E+00  0.00000000E+00
  0.00000000E+00  0.00000000E+00  0.00000000E+00  0.00000000E+00 -1.03277396E+00
  0.00000000E+00  0.00000000E+00  0.00000000E+00  1.51675252E+00  0.00000000E+00
  0.00000000E+00  0.00000000E+00 -8.91956499E-01  0.00000000E+00  0.00000000E+00
  0.00000000E+00  0.00000000E+00  0.00000000E+00  0.00000000E+00  0.00000000E+00
  0.00000000E+00
Total SCF Density                          R   N=         190
  2.07979029E+00 -8.00767959E-02  3.59124754E-01  0.00000000E+00  0.00000000E+00
  6.79940182E-34  0.00000000E+00  0.00000000E+00  0.00000000E+00  6.79940182E-34
  0.00000000E+00  0.00000000E+00  5.55213293E-18 -5.55213293E-18  3.62692847E-01
 -3.03698549E-01  4.87623345E-01  0.00000000E+00  0.00000000E+00  0.00000000E+00
  6.80556693E-01  0.00000000E+00  0.00000000E+00  4.79327975E-34  0.00000000E+00
  3.91400995E-18  0.00000000E+00  3.37905177E-34  0.00000000E+00  0.00000000E+00
  0.00000000E+00  4.79327975E-34 -3.91400995E-18  0.00000000E+00  0.00000000E+00
  3.37905177E-34  0.00000000E+00  0.00000000E+00  3.91400995E-18 -3.91400995E-18
  2.55682533E-01  0.00000000E+00  2.75920516E-18 -2.75920516E-18  1.80244960E-01
 -2.72230456E-02  6.04955664E-02  0.00000000E+00  0.00000000E+00  0.00000000E+00
  8.34823470E-02  0.00000000E+00  0.00000000E+00  0.00000000E+00  1.03950009E-02
  0.00000000E+00  0.00000000E+00  1.80970680E-34  0.00000000E+00  1.47773775E-18
  0.00000000E+00  1.27576384E-34  0.00000000E+00  1.04174023E-18  0.00000000E+00
  4.81665710E-35  0.00000000E+00  0.00000000E+00  0.00000000E+00  1.80970680E-34
 -1.47773775E-18  0.00000000E+00  0.00000000E+00  1.27576384E-34 -1.04174023E-18
  0.00000000E+00  0.00000000E+00  4.81665710E-35  0.00000000E+00  0.00000000E+00
  1.47773775E-18 -1.47773775E-18  9.65331554E-02  0.00000000E+00  1.04174023E-18
 -1.04174023E-18  6.80516362E-02  0.00000000E+00  3.93309900E-19 -3.93309900E-19
  2.56929525E-02 -2.65684991E-02  7.07425816E-03  0.00000000E+00  0.00000000E+00
  0.00000000E+00  1.20128161E-02  0.00000000E+00  0.00000000E+00  0.00000000E+00
  1.47262595E-03  0.00000000E+00  0.00000000E+00  0.00000000E+00  5.58771480E-04
 -2.65684991E-02  7.07425816E-03  0.00000000E+00  0.00000000E+00  0.00000000E+00
  1.20128161E-02  0.00000000E+00  0.00000000E+00  0.00000000E+00  1.47262595E-03
  0.00000000E+00  0.00000000E+00  0.00000000E+00  5.58771480E-04  5.58771480E-04
 -2.11697127E-02 -3.18229580E-03  0.00000000E+00  0.00000000E+00  0.00000000E+00
 -2.36167681E-03  0.00000000E+00  0.00000000E+00  0.00000000E+00 -6.85891113E-04
  0.00000000E+00  0.00000000E+00  0.00000000E+00 -9.70188775E-05 -9.70188775E-05
  1.03441555E-03 -1.55671064E-33 -4.82562925E-33  0.00000000E+00  0.00000000E+00
  0.00000000E+00 -6.29633857E-33  0.00000000E+00  0.00000000E+00  0.00000000E+00
 -8.36123879E-34  0.00000000E+00  0.00000000E+00  0.00000000E+00 -9.16478642E-35
 -8.90417638E-35  1.73740027E-34 -3.68528741E-52  9.54303201E-20 -1.81297453E-19