 Entering Gaussian System, Link 0=g16
 Input=atom.in
 Output=atom.log
 Initial command:
 /apps/gent/CO7/cascadelake-ib/software/Gaussian/g16_C.01-intel-2019b/g16/l1.exe "/kyukon/scratch/gent/vo/000/gvo00003/vsc43080/LRC_CD/atoms/008__o_007_q+01/mult04/Gau-29228.inp" -scrdir="/kyukon/scratch/gent/vo/000/gvo00003/vsc43080/LRC_CD/atoms/008__o_007_q+01/mult04/"
 Entering Link 1 = /apps/gent/CO7/cascadelake-ib/software/Gaussian/g16_C.01-intel-2019b/g16/l1.exe.bin PID=     29229.

 Copyright (c) 1988-2019, Gaussian, Inc.  All Rights Reserved.

 This is part of the Gaussian(R) 16 program.  It is based on
 the Gaussian(R) 09 system (copyright 2009, Gaussian, Inc.),
 the Gaussian(R) 03 system (copyright 2003, Gaussian, Inc.),
 the Gaussian(R) 98 system (copyright 1998, Gaussian, Inc.),
 the Gaussian(R) 94 system (copyright 1995, Gaussian, Inc.),
 the Gaussian 92(TM) system (copyright 1992, Gaussian, Inc.),
 the Gaussian 90(TM) system (copyright 1990, Gaussian, Inc.),
 the Gaussian 88(TM) system (copyright 1988, Gaussian, Inc.),
 the Gaussian 86(TM) system (copyright 1986, Carnegie Mellon
 University), and the Gaussian 82(TM) system (copyright 1983,
 Carnegie Mellon University). Gaussian is a federally registered
 trademark of Gaussian, Inc.

 This software contains proprietary and confidential information,
 including trade secrets, belonging to Gaussian, Inc.

 This software is provided under written license and may be
 used, copied, transmitted, or stored only in accord with that
 written license.

 The following legend is applicable only to US Government
 contracts under FAR:

                    RESTRICTED RIGHTS LEGEND

 Use, reproduction and disclosure by the US Government is
 subject to restrictions as set forth in subparagraphs (a)
 and (c) of the Commercial Computer Software - Restricted
 Rights clause in FAR 52.227-19.

 Gaussian, Inc.
 340 Quinnipiac St., Bldg. 40, Wallingford CT 06492


 ---------------------------------------------------------------
 Warning -- This program may not be used in any manner that
 competes with the business of Gaussian, Inc. or will provide
 assistance to any competitor of Gaussian, Inc.  The licensee
 of this program is prohibited from giving any competitor of
 Gaussian, Inc. access to this program.  By using this program,
 the user acknowledges that Gaussian, Inc. is engaged in the
 business of creating and licensing software in the field of
 computational chemistry and represents and warrants to the
 licensee that it is not a competitor of Gaussian, Inc. and that
 it will not use this program in any manner prohibited above.
 ---------------------------------------------------------------


 Cite this work as:
 Gaussian 16, Revision C.01,
 M. J. Frisch, G. W. Trucks, H. B. Schlegel, G. E. Scuseria,
 M. A. Robb, J. R. Cheeseman, G. Scalmani, V. Barone,
 G. A. Petersson, H. Nakatsuji, X. Li, M. Caricato, A. V. Marenich,
 J. Bloino, B. G. Janesko, R. Gomperts, B. Mennucci, H. P. Hratchian,
 J. V. Ortiz, A. F. Izmaylov, J. L. Sonnenberg, D. Williams-Young,
 F. Ding, F. Lipparini, F. Egidi, J. Goings, B. Peng, A. Petrone,
 T. Henderson, D. Ranasinghe, V. G. Zakrzewski, J. Gao, N. Rega,
 G. Zheng, W. Liang, M. Hada, M. Ehara, K. Toyota, R. Fukuda,
 J. Hasegawa, M. Ishida, T. Nakajima, Y. Honda, O. Kitao, H. Nakai,
 T. Vreven, K. Throssell, J. A. Montgomery, Jr., J. E. Peralta,
 F. Ogliaro, M. J. Bearpark, J. J. Heyd, E. N. Brothers, K. N. Kudin,
 V. N. Staroverov, T. A. Keith, R. Kobayashi, J. Normand,
 K. Raghavachari, A. P. Rendell, J. C. Burant, S. S. Iyengar,
 J. Tomasi, M. Cossi, J. M. Millam, M. Klene, C. Adamo, R. Cammi,
 J. W. Ochterski, R. L. Martin, K. Morokuma, O. Farkas,
 J. B. Foresman, and D. J. Fox, Gaussian, Inc., Wallingford CT, 2019.

 ******************************************
 Gaussian 16:  ES64L-G16RevC.01  3-Jul-2019
                 3-Aug-2021
 ******************************************
 %chk=atom.chk
 %nproc=1
 Will use up to    1 processors via shared memory.
 %mem=1GB
 --------------------------
 #PBEPBE/6-31+g** scf=tight
 --------------------------
 1/38=1,172=1/1;
 2/12=2,17=6,18=5,40=1/2;
 3/5=1,6=6,7=111,11=2,25=1,30=1,74=1009/1,2,3;
 4//1;
 5/5=2,32=2,38=5/2;
 6/7=2,8=2,9=2,10=2,28=1/1;
 99/5=1,9=1/99;
 Leave Link    1 at Tue Aug  3 16:34:30 2021, MaxMem=   134217728 cpu:               0.0 elap:               0.2
 (Enter /apps/gent/CO7/cascadelake-ib/software/Gaussian/g16_C.01-intel-2019b/g16/l101.exe.bin)
 -----
 fubar
 -----
 Symbolic Z-matrix:
 Charge =  1 Multiplicity = 4
 O                     0.        0.        0.

 ITRead=  0
 MicOpt= -1
 NAtoms=      1 NQM=        1 NQMF=       0 NMMI=      0 NMMIF=      0
                NMic=       0 NMicF=      0.
                    Isotopes and Nuclear Properties:
 (Nuclear quadrupole moments (NQMom) in fm**2, nuclear magnetic moments (NMagM)
  in nuclear magnetons)

  Atom         1
 IAtWgt=          16
 AtmWgt=  15.9949146
 NucSpn=           0
 AtZEff=   0.0000000
 NQMom=    0.0000000
 NMagM=    0.0000000
 AtZNuc=   8.0000000
 Leave Link  101 at Tue Aug  3 16:34:30 2021, MaxMem=   134217728 cpu:               0.1 elap:               0.2
 (Enter /apps/gent/CO7/cascadelake-ib/software/Gaussian/g16_C.01-intel-2019b/g16/l202.exe.bin)
                          Input orientation:
 ---------------------------------------------------------------------
 Center     Atomic      Atomic             Coordinates (Angstroms)
 Number     Number       Type             X           Y           Z
 ---------------------------------------------------------------------
      1          8           0        0.000000    0.000000    0.000000
 ---------------------------------------------------------------------
 Stoichiometry    O(1+,4)
 Framework group  OH[O(O)]
 Deg. of freedom     0
 Full point group                 OH      NOp  48
 Largest Abelian subgroup         D2H     NOp   8
 Largest concise Abelian subgroup C1      NOp   1
                         Standard orientation:
 ---------------------------------------------------------------------
 Center     Atomic      Atomic             Coordinates (Angstroms)
 Number     Number       Type             X           Y           Z
 ---------------------------------------------------------------------
      1          8           0        0.000000    0.000000    0.000000
 ---------------------------------------------------------------------
 Leave Link  202 at Tue Aug  3 16:34:30 2021, MaxMem=   134217728 cpu:               0.0 elap:               0.0
 (Enter /apps/gent/CO7/cascadelake-ib/software/Gaussian/g16_C.01-intel-2019b/g16/l301.exe.bin)
 Standard basis: 6-31+G(d,p) (6D, 7F)
 Ernie: Thresh=  0.10000D-02 Tol=  0.10000D-05 Strict=F.
 There are     7 symmetry adapted cartesian basis functions of AG  symmetry.
 There are     1 symmetry adapted cartesian basis functions of B1G symmetry.
 There are     1 symmetry adapted cartesian basis functions of B2G symmetry.
 There are     1 symmetry adapted cartesian basis functions of B3G symmetry.
 There are     0 symmetry adapted cartesian basis functions of AU  symmetry.
 There are     3 symmetry adapted cartesian basis functions of B1U symmetry.
 There are     3 symmetry adapted cartesian basis functions of B2U symmetry.
 There are     3 symmetry adapted cartesian basis functions of B3U symmetry.
 There are     7 symmetry adapted basis functions of AG  symmetry.
 There are     1 symmetry adapted basis functions of B1G symmetry.
 There are     1 symmetry adapted basis functions of B2G symmetry.
 There are     1 symmetry adapted basis functions of B3G symmetry.
 There are     0 symmetry adapted basis functions of AU  symmetry.
 There are     3 symmetry adapted basis functions of B1U symmetry.
 There are     3 symmetry adapted basis functions of B2U symmetry.
 There are     3 symmetry adapted basis functions of B3U symmetry.
    19 basis functions,    32 primitive gaussians,    19 cartesian basis functions
     5 alpha electrons        2 beta electrons
       nuclear repulsion energy         0.0000000000 Hartrees.
 IExCor= 1009 DFT=T Ex=PBE Corr=PBE ExCW=0 ScaHFX=  0.000000
 ScaDFX=  1.000000  1.000000  1.000000  1.000000 ScalE2=  1.000000  1.000000
 IRadAn=      5 IRanWt=     -1 IRanGd=            0 ICorTp=0 IEmpDi=  4
 NAtoms=    1 NActive=    1 NUniq=    1 SFac= 1.00D+00 NAtFMM=   60 NAOKFM=F Big=F
 Integral buffers will be    131072 words long.
 Raffenetti 2 integral format.
 Two-electron integral symmetry is turned on.
 Leave Link  301 at Tue Aug  3 16:34:31 2021, MaxMem=   134217728 cpu:               0.0 elap:               0.1
 (Enter /apps/gent/CO7/cascadelake-ib/software/Gaussian/g16_C.01-intel-2019b/g16/l302.exe.bin)
 NPDir=0 NMtPBC=     1 NCelOv=     1 NCel=       1 NClECP=     1 NCelD=      1
         NCelK=      1 NCelE2=     1 NClLst=     1 CellRange=     0.0.
 One-electron integrals computed using PRISM.
 One-electron integral symmetry used in STVInt
 NBasis=    19 RedAO= T EigKep=  2.45D-02  NBF=     7     1     1     1     0     3     3     3
 NBsUse=    19 1.00D-06 EigRej= -1.00D+00 NBFU=     7     1     1     1     0     3     3     3
 Precomputing XC quadrature grid using
 IXCGrd= 4 IRadAn=           5 IRanWt=          -1 IRanGd=           0 AccXCQ= 0.00D+00.
 Generated NRdTot=       0 NPtTot=           0 NUsed=           0 NTot=          32
 NSgBfM=    19    19    19    19    19 MxSgAt=     1 MxSgA2=     1.
 Leave Link  302 at Tue Aug  3 16:34:31 2021, MaxMem=   134217728 cpu:               0.1 elap:               0.1
 (Enter /apps/gent/CO7/cascadelake-ib/software/Gaussian/g16_C.01-intel-2019b/g16/l303.exe.bin)
 DipDrv:  MaxL=1.
 Leave Link  303 at Tue Aug  3 16:34:31 2021, MaxMem=   134217728 cpu:               0.0 elap:               0.1
 (Enter /apps/gent/CO7/cascadelake-ib/software/Gaussian/g16_C.01-intel-2019b/g16/l401.exe.bin)
 ExpMin= 8.45D-02 ExpMax= 5.48D+03 ExpMxC= 8.25D+02 IAcc=3 IRadAn=         5 AccDes= 0.00D+00
 Harris functional with IExCor= 1009 and IRadAn=       5 diagonalized for initial guess.
 HarFok:  IExCor= 1009 AccDes= 0.00D+00 IRadAn=         5 IDoV= 1 UseB2=F ITyADJ=14
 ICtDFT=  3500011 ScaDFX=  1.000000  1.000000  1.000000  1.000000
 FoFCou: FMM=F IPFlag=           0 FMFlag=      100000 FMFlg1=           0
         NFxFlg=           0 DoJE=T BraDBF=F KetDBF=T FulRan=T
         wScrn=  0.000000 ICntrl=       500 IOpCl=  0 I1Cent=   200000004 NGrid=           0
         NMat0=    1 NMatS0=      1 NMatT0=    0 NMatD0=    1 NMtDS0=    0 NMtDT0=    0
 Petite list used in FoFCou.
 Harris En= -74.5968925509013
 JPrj=0 DoOrth=F DoCkMO=F.
 Initial guess orbital symmetries:
 Alpha Orbitals:
       Occupied  (A1G) (A1G) (T1U) (T1U) (T1U)
       Virtual   (A1G) (T1U) (T1U) (T1U) (T1U) (T1U) (T1U) (A1G)
                 (T2G) (T2G) (T2G) (EG) (EG) (A1G)
 Beta  Orbitals:
       Occupied  (A1G) (A1G)
       Virtual   (T1U) (T1U) (T1U) (A1G) (T1U) (T1U) (T1U) (T1U)
                 (T1U) (T1U) (A1G) (T2G) (T2G) (T2G) (EG) (EG)
                 (A1G)
 The electronic state of the initial guess is 4-A1G.
 Initial guess <Sx>= 0.0000 <Sy>= 0.0000 <Sz>= 1.5000 <S**2>= 3.7500 S= 1.5000
 Leave Link  401 at Tue Aug  3 16:34:31 2021, MaxMem=   134217728 cpu:               0.1 elap:               0.1
 (Enter /apps/gent/CO7/cascadelake-ib/software/Gaussian/g16_C.01-intel-2019b/g16/l502.exe.bin)
 Keep J ints in memory in symmetry-blocked form, NReq=884106.
 FoFCou: FMM=F IPFlag=           0 FMFlag=           0 FMFlg1=           0
         NFxFlg=           0 DoJE=F BraDBF=F KetDBF=F FulRan=T
         wScrn=  0.000000 ICntrl=       600 IOpCl=  0 I1Cent=           0 NGrid=           0
         NMat0=    1 NMatS0=    190 NMatT0=    0 NMatD0=    1 NMtDS0=    0 NMtDT0=    0
 Petite list used in FoFCou.
 UHF open shell SCF:
 Using DIIS extrapolation, IDIIS=  1040.
 NGot=   134217728 LenX=   134210631 LenY=   134209749
 Requested convergence on RMS density matrix=1.00D-08 within 128 cycles.
 Requested convergence on MAX density matrix=1.00D-06.
 Requested convergence on             energy=1.00D-06.
 No special actions if energy rises.
 Integral accuracy reduced to 1.0D-05 until final iterations.

 Cycle   1  Pass 0  IDiag  1:
 E= -74.3235648767225
 DIIS: error= 1.16D-01 at cycle   1 NSaved=   1.
 NSaved= 1 IEnMin= 1 EnMin= -74.3235648767225     IErMin= 1 ErrMin= 1.16D-01
 ErrMax= 1.16D-01  0.00D+00 EMaxC= 1.00D-01 BMatC= 5.79D-01 BMatP= 5.79D-01
 IDIUse=3 WtCom= 0.00D+00 WtEn= 1.00D+00
 Coeff-Com:  0.100D+01
 Coeff-En:   0.100D+01
 Coeff:      0.100D+01
 Gap=     0.872 Goal=   None    Shift=    0.000
 Gap=     0.569 Goal=   None    Shift=    0.000
 GapD=    0.569 DampG=2.000 DampE=0.250 DampFc=0.5000 IDamp=-1.
 Damping current iteration by 5.00D-01
 RMSDP=2.25D-02 MaxDP=2.52D-01              OVMax= 1.75D-01

 Cycle   2  Pass 0  IDiag  1:
 E= -74.4043930533353     Delta-E=       -0.080828176613 Rises=F Damp=T
 DIIS: error= 3.15D-02 at cycle   2 NSaved=   2.
 NSaved= 2 IEnMin= 2 EnMin= -74.4043930533353     IErMin= 2 ErrMin= 3.15D-02
 ErrMax= 3.15D-02  0.00D+00 EMaxC= 1.00D-01 BMatC= 3.20D-02 BMatP= 5.79D-01
 IDIUse=3 WtCom= 6.85D-01 WtEn= 3.15D-01
 Coeff-Com: -0.260D+00 0.126D+01
 Coeff-En:   0.000D+00 0.100D+01
 Coeff:     -0.178D+00 0.118D+01
 Gap=     0.759 Goal=   None    Shift=    0.000
 Gap=     0.559 Goal=   None    Shift=    0.000
 RMSDP=5.33D-03 MaxDP=5.05D-02 DE=-8.08D-02 OVMax= 4.46D-02

 Cycle   3  Pass 0  IDiag  1:
 E= -74.4646196463235     Delta-E=       -0.060226592988 Rises=F Damp=F
 DIIS: error= 8.50D-03 at cycle   3 NSaved=   3.
 NSaved= 3 IEnMin= 3 EnMin= -74.4646196463235     IErMin= 3 ErrMin= 8.50D-03
 ErrMax= 8.50D-03  0.00D+00 EMaxC= 1.00D-01 BMatC= 3.13D-03 BMatP= 3.20D-02
 IDIUse=3 WtCom= 9.15D-01 WtEn= 8.50D-02
 Coeff-Com:  0.156D+00-0.346D+00 0.119D+01
 Coeff-En:   0.000D+00 0.000D+00 0.100D+01
 Coeff:      0.143D+00-0.317D+00 0.117D+01
 Gap=     0.747 Goal=   None    Shift=    0.000
 Gap=     0.555 Goal=   None    Shift=    0.000
 RMSDP=1.25D-03 MaxDP=1.35D-02 DE=-6.02D-02 OVMax= 8.86D-03

 Cycle   4  Pass 0  IDiag  1:
 E= -74.4652387823239     Delta-E=       -0.000619136000 Rises=F Damp=F
 DIIS: error= 9.11D-04 at cycle   4 NSaved=   4.
 NSaved= 4 IEnMin= 4 EnMin= -74.4652387823239     IErMin= 4 ErrMin= 9.11D-04
 ErrMax= 9.11D-04  0.00D+00 EMaxC= 1.00D-01 BMatC= 5.33D-05 BMatP= 3.13D-03
 IDIUse=3 WtCom= 9.91D-01 WtEn= 9.11D-03
 Coeff-Com:  0.226D-02-0.825D-02 0.124D+00 0.882D+00
 Coeff-En:   0.000D+00 0.000D+00 0.000D+00 0.100D+01
 Coeff:      0.224D-02-0.817D-02 0.123D+00 0.883D+00
 Gap=     0.748 Goal=   None    Shift=    0.000
 Gap=     0.555 Goal=   None    Shift=    0.000
 RMSDP=1.47D-04 MaxDP=1.51D-03 DE=-6.19D-04 OVMax= 7.55D-04

 Cycle   5  Pass 0  IDiag  1:
 E= -74.4652496441967     Delta-E=       -0.000010861873 Rises=F Damp=F
 DIIS: error= 1.74D-05 at cycle   5 NSaved=   5.
 NSaved= 5 IEnMin= 5 EnMin= -74.4652496441967     IErMin= 5 ErrMin= 1.74D-05
 ErrMax= 1.74D-05  0.00D+00 EMaxC= 1.00D-01 BMatC= 1.50D-08 BMatP= 5.33D-05
 IDIUse=1 WtCom= 1.00D+00 WtEn= 0.00D+00
 Coeff-Com:  0.423D-03-0.105D-02-0.289D-02-0.607D-01 0.106D+01
 Coeff:      0.423D-03-0.105D-02-0.289D-02-0.607D-01 0.106D+01
 Gap=     0.748 Goal=   None    Shift=    0.000
 Gap=     0.555 Goal=   None    Shift=    0.000
 RMSDP=2.70D-06 MaxDP=2.77D-05 DE=-1.09D-05 OVMax= 1.34D-05

 Initial convergence to 1.0D-05 achieved.  Increase integral accuracy.
 Cycle   6  Pass 1  IDiag  1:
 E= -74.4652496299513     Delta-E=        0.000000014245 Rises=F Damp=F
 DIIS: error= 1.81D-06 at cycle   1 NSaved=   1.
 NSaved= 1 IEnMin= 1 EnMin= -74.4652496299513     IErMin= 1 ErrMin= 1.81D-06
 ErrMax= 1.81D-06  0.00D+00 EMaxC= 1.00D-01 BMatC= 2.10D-10 BMatP= 2.10D-10
 IDIUse=1 WtCom= 1.00D+00 WtEn= 0.00D+00
 Coeff-Com:  0.100D+01
 Coeff:      0.100D+01
 Gap=     0.748 Goal=   None    Shift=    0.000
 Gap=     0.555 Goal=   None    Shift=    0.000
 RMSDP=2.70D-06 MaxDP=2.77D-05 DE= 1.42D-08 OVMax= 3.14D-06

 Cycle   7  Pass 1  IDiag  1:
 E= -74.4652496299825     Delta-E=       -0.000000000031 Rises=F Damp=F
 DIIS: error= 1.09D-06 at cycle   2 NSaved=   2.
 NSaved= 2 IEnMin= 2 EnMin= -74.4652496299825     IErMin= 2 ErrMin= 1.09D-06
 ErrMax= 1.09D-06  0.00D+00 EMaxC= 1.00D-01 BMatC= 6.66D-11 BMatP= 2.10D-10
 IDIUse=1 WtCom= 1.00D+00 WtEn= 0.00D+00
 Coeff-Com:  0.359D+00 0.641D+00
 Coeff:      0.359D+00 0.641D+00
 Gap=     0.748 Goal=   None    Shift=    0.000
 Gap=     0.555 Goal=   None    Shift=    0.000
 RMSDP=1.59D-07 MaxDP=1.64D-06 DE=-3.11D-11 OVMax= 9.17D-07

 Cycle   8  Pass 1  IDiag  1:
 E= -74.4652496299957     Delta-E=       -0.000000000013 Rises=F Damp=F
 DIIS: error= 2.89D-09 at cycle   3 NSaved=   3.
 NSaved= 3 IEnMin= 3 EnMin= -74.4652496299957     IErMin= 3 ErrMin= 2.89D-09
 ErrMax= 2.89D-09  0.00D+00 EMaxC= 1.00D-01 BMatC= 3.22D-16 BMatP= 6.66D-11
 IDIUse=1 WtCom= 1.00D+00 WtEn= 0.00D+00
 Coeff-Com: -0.429D-03-0.138D-02 0.100D+01
 Coeff:     -0.429D-03-0.138D-02 0.100D+01
 Gap=     0.748 Goal=   None    Shift=    0.000
 Gap=     0.555 Goal=   None    Shift=    0.000
 RMSDP=6.65D-10 MaxDP=6.91D-09 DE=-1.32D-11 OVMax= 6.41D-09

 SCF Done:  E(UPBE-PBE) =  -74.4652496300     A.U. after    8 cycles
            NFock=  8  Conv=0.66D-09     -V/T= 2.0088
 <Sx>= 0.0000 <Sy>= 0.0000 <Sz>= 1.5000 <S**2>= 3.7517 S= 1.5004
 <L.S>=  0.00000000000
 KE= 7.381289733257D+01 PE=-1.721143453382D+02 EE= 2.383619837560D+01
 Annihilation of the first spin contaminant:
 S**2 before annihilation     3.7517,   after     3.7500
 Leave Link  502 at Tue Aug  3 16:34:31 2021, MaxMem=   134217728 cpu:               0.2 elap:               0.2
 (Enter /apps/gent/CO7/cascadelake-ib/software/Gaussian/g16_C.01-intel-2019b/g16/l601.exe.bin)
 Copying SCF densities to generalized density rwf, IOpCl= 1 IROHF=0.

 **********************************************************************

            Population analysis using the SCF Density.

 **********************************************************************

 Orbital symmetries:
 Alpha Orbitals:
       Occupied  (A1G) (A1G) (T1U) (T1U) (T1U)
       Virtual   (A1G) (T1U) (T1U) (T1U) (T1U) (T1U) (T1U) (A1G)
                 (T2G) (T2G) (T2G) (EG) (EG) (A1G)
 Beta  Orbitals:
       Occupied  (A1G) (A1G)
       Virtual   (T1U) (T1U) (T1U) (A1G) (T1U) (T1U) (T1U) (T1U)
                 (T1U) (T1U) (A1G) (T2G) (T2G) (T2G) (EG) (EG)
                 (A1G)
 The electronic state is 4-A1G.
 Alpha  occ. eigenvalues --  -19.62100  -1.52919  -0.97083  -0.97083  -0.97083
 Alpha virt. eigenvalues --   -0.22278  -0.12911  -0.12911  -0.12911   0.55719
 Alpha virt. eigenvalues --    0.55719   0.55719   0.68965   1.08333   1.08333
 Alpha virt. eigenvalues --    1.08333   1.08333   1.08333   2.94437
  Beta  occ. eigenvalues --  -19.54315  -1.31367
  Beta virt. eigenvalues --   -0.75895  -0.75895  -0.75895  -0.17413  -0.08484
  Beta virt. eigenvalues --   -0.08484  -0.08484   0.66406   0.66406   0.66406
  Beta virt. eigenvalues --    0.78108   1.24480   1.24480   1.24480   1.24480
  Beta virt. eigenvalues --    1.24480   3.09809
          Condensed to atoms (all electrons):
               1
     1  O    7.000000
          Atomic-Atomic Spin Densities.
               1
     1  O    3.000000
 Mulliken charges and spin densities:
               1          2
     1  O    1.000000   3.000000
 Sum of Mulliken charges =   1.00000   3.00000
 Mulliken charges and spin densities with hydrogens summed into heavy atoms:
               1          2
     1  O    1.000000   3.000000
 Electronic spatial extent (au):  <R**2>=              7.5550
 Charge=              1.0000 electrons
 Dipole moment (field-independent basis, Debye):
    X=              0.0000    Y=              0.0000    Z=              0.0000  Tot=              0.0000
 Quadrupole moment (field-independent basis, Debye-Ang):
   XX=             -3.3873   YY=             -3.3873   ZZ=             -3.3873
   XY=             -0.0000   XZ=              0.0000   YZ=             -0.0000
 Traceless Quadrupole moment (field-independent basis, Debye-Ang):
   XX=              0.0000   YY=              0.0000   ZZ=              0.0000
   XY=             -0.0000   XZ=              0.0000   YZ=             -0.0000
 Octapole moment (field-independent basis, Debye-Ang**2):
  XXX=              0.0000  YYY=              0.0000  ZZZ=              0.0000  XYY=              0.0000
  XXY=              0.0000  XXZ=              0.0000  XZZ=              0.0000  YZZ=              0.0000
  YYZ=              0.0000  XYZ=              0.0000
 Hexadecapole moment (field-independent basis, Debye-Ang**3):
 XXXX=             -1.7957 YYYY=             -1.7957 ZZZZ=             -1.7957 XXXY=             -0.0000
 XXXZ=              0.0000 YYYX=             -0.0000 YYYZ=             -0.0000 ZZZX=              0.0000
 ZZZY=             -0.0000 XXYY=             -0.5986 XXZZ=             -0.5986 YYZZ=             -0.5986
 XXYZ=             -0.0000 YYXZ=              0.0000 ZZXY=             -0.0000
 N-N= 0.000000000000D+00 E-N=-1.721143453189D+02  KE= 7.381289733257D+01
 Symmetry AG   KE= 6.473071075456D+01
 Symmetry B1G  KE= 2.324478227424D-34
 Symmetry B2G  KE= 3.433972254545D-36
 Symmetry B3G  KE= 1.098272075297D-35
 Symmetry AU   KE= 0.000000000000D+00
 Symmetry B1U  KE= 3.027395526003D+00
 Symmetry B2U  KE= 3.027395526003D+00
 Symmetry B3U  KE= 3.027395526003D+00
 Symmetry AG   SP= 8.429671891075D-16
 Symmetry B1G  SP=-2.860049754432D-38
 Symmetry B2G  SP= 3.395008925824D-37
 Symmetry B3G  SP= 3.394025213994D-37
 Symmetry AU   SP= 0.000000000000D+00
 Symmetry B1U  SP= 1.000000000000D+00
 Symmetry B2U  SP= 1.000000000000D+00
 Symmetry B3U  SP= 1.000000000000D+00
                          Isotropic Fermi Contact Couplings
        Atom                 a.u.       MegaHertz       Gauss      10(-4) cm-1
     1  O(17)              0.15132     -30.57704     -10.91065     -10.19940
 --------------------------------------------------------
       Center         ----  Spin Dipole Couplings  ----
                      3XX-RR        3YY-RR        3ZZ-RR
 --------------------------------------------------------
     1   Atom       -0.000000      0.000000     -0.000000
 --------------------------------------------------------
                        XY            XZ            YZ
 --------------------------------------------------------
     1   Atom        0.000000      0.000000      0.000000
 --------------------------------------------------------


 ---------------------------------------------------------------------------------
              Anisotropic Spin Dipole Couplings in Principal Axis System
 ---------------------------------------------------------------------------------

       Atom             a.u.   MegaHertz   Gauss  10(-4) cm-1        Axes

              Baa    -0.0000     0.000     0.000     0.000  1.0000  0.0000  0.0000
     1 O(17)  Bbb    -0.0000     0.000     0.000     0.000  0.0000  0.0000  1.0000
              Bcc     0.0000    -0.000    -0.000    -0.000  0.0000  1.0000  0.0000


 ---------------------------------------------------------------------------------

 No NMR shielding tensors so no spin-rotation constants.
 Leave Link  601 at Tue Aug  3 16:34:32 2021, MaxMem=   134217728 cpu:               0.1 elap:               0.2
 (Enter /apps/gent/CO7/cascadelake-ib/software/Gaussian/g16_C.01-intel-2019b/g16/l9999.exe.bin)
 Unable to Open any file for archive entry.
 1\1\GINC-GLIGAR05\SP\UPBEPBE\6-31+G(d,p)\O1(1+,4)\VSC43080\03-Aug-2021
 \0\\#PBEPBE/6-31+g** scf=tight\\fubar\\1,4\O,0,0.,0.,0.\\Version=ES64L
 -G16RevC.01\State=4-A1G\HF=-74.4652496\S2=3.751698\S2-1=0.\S2A=3.75\RM
 SD=6.649e-10\Dipole=0.,0.,0.\Quadrupole=0.,0.,0.,0.,0.,0.\PG=OH [O(O1)
 ]\\@
 The archive entry for this job was punched.


 THE VALUE OF PHILOSOPHY IS, IN FACT, TO BE SOUGHT LARGELY IN ITS
 VERY UNCERTAINTY.  THE MAN WHO HAS NO TINCTURE OF PHILOSOPHY GOES
 THROUGH LIFE IMPRISONED IN THE PREJUDICES DERIVED FROM COMMON SENSE,
 FROM THE HABITUAL BELIEFS OF HIS AGE OR HIS NATION, AND FROM
 CONVICTIONS WHICH HAVE GROWN UP IN HIS MIND WITHOUT THE CO-OPERATION
 OR CONSENT OF HIS DELIBERATE REASON.  TO SUCH A MAN THE WORLD TENDS
 TO BE DEFINITE, FINITE, OBVIOUS; COMMON OBJECTS ROUSE NO QUESTIONS,
 AND UNFAMILIAR POSSIBILITIES ARE CONTEMPTUOUSLY REJECTED.

                             -- BERTRAND RUSSELL
 Job cpu time:       0 days  0 hours  0 minutes  0.6 seconds.
 Elapsed time:       0 days  0 hours  0 minutes  1.3 seconds.
 File lengths (MBytes):  RWF=    136 Int=      0 D2E=      0 Chk=     16 Scr=     16
 Normal termination of Gaussian 16 at Tue Aug  3 16:34:32 2021.
