fubar
SP        UPBEPBE                                                     6-31+G(d,p)
Number of atoms                            I                1
Info1-9                                    I   N=           9
          11          10           0           0           0         110
           1          18         902
Charge                                     I                1
Multiplicity                               I                2
Number of electrons                        I                5
Number of alpha electrons                  I                3
Number of beta electrons                   I                2
Number of basis functions                  I               19
Number of independent functions            I               19
Number of point charges in /Mol/           I                0
Number of translation vectors              I                0
Atomic numbers                             I   N=           1
           6
Nuclear charges                            R   N=           1
  6.00000000E+00
Current cartesian coordinates              R   N=           3
  0.00000000E+00  0.00000000E+00  0.00000000E+00
Force Field                                I                0
Int Atom Types                             I   N=           1
           0
MM charges                                 R   N=           1
  0.00000000E+00
Integer atomic weights                     I   N=           1
          12
Real atomic weights                        R   N=           1
  1.20000000E+01
Atom fragment info                         I   N=           1
           0
Atom residue num                           I   N=           1
           0
Nuclear spins                              I   N=           1
           0
Nuclear ZEff                               R   N=           1
 -3.60000000E+00
Nuclear ZNuc                               R   N=           1
  6.00000000E+00
Nuclear QMom                               R   N=           1
  0.00000000E+00
Nuclear GFac                               R   N=           1
  0.00000000E+00
MicOpt                                     I   N=           1
          -1
Number of contracted shells                I                5
Number of primitive shells                 I               12
Pure/Cartesian d shells                    I                1
Pure/Cartesian f shells                    I                0
Highest angular momentum                   I                2
Largest degree of contraction              I                6
Shell types                                I   N=           5
           0          -1          -1          -1           2
Number of primitives per shell             I   N=           5
           6           3           1           1           1
Shell to atom map                          I   N=           5
           1           1           1           1           1
Primitive exponents                        R   N=          12
  3.04752488E+03  4.57369518E+02  1.03948685E+02  2.92101553E+01  9.28666296E+00
  3.16392696E+00  7.86827235E+00  1.88128854E+00  5.44249258E-01  1.68714478E-01
  4.38000000E-02  8.00000000E-01
Contraction coefficients                   R   N=          12
  1.83473713E-03  1.40373228E-02  6.88426223E-02  2.32184443E-01  4.67941348E-01
  3.62311985E-01 -1.19332420E-01 -1.60854152E-01  1.14345644E+00  1.00000000E+00
  1.00000000E+00  1.00000000E+00
P(S=P) Contraction coefficients            R   N=          12
  0.00000000E+00  0.00000000E+00  0.00000000E+00  0.00000000E+00  0.00000000E+00
  0.00000000E+00  6.89990666E-02  3.16423961E-01  7.44308291E-01  1.00000000E+00
  1.00000000E+00  0.00000000E+00
Coordinates of each shell                  R   N=          15
  0.00000000E+00  0.00000000E+00  0.00000000E+00  0.00000000E+00  0.00000000E+00
  0.00000000E+00  0.00000000E+00  0.00000000E+00  0.00000000E+00  0.00000000E+00
  0.00000000E+00  0.00000000E+00  0.00000000E+00  0.00000000E+00  0.00000000E+00
Constraint Structure                       R   N=           3
  0.00000000E+00  0.00000000E+00  0.00000000E+00
Num ILSW                                   I              100
ILSW                                       I   N=         100
           1           1           0           0           2           0
           0           0           0           0        1009          -1
           0           0           0           0           0           0
           0           0           0           0           0           0
           1           0           0           0           0           0
           0           0      100000           0          -1           0
           0           0           0           0           0           0
           0           0           0           1           0           0
           0           0           1           0           0           0
           0           0           4          41           0           0
           0           0           0           0           0           0
           0           0           0           1           0           0
           0           0           0           0           0           0
           0           0           0           0           0           0
           0           0           0           0           0           0
           0           0           0           0           0           0
           0           0           0           0
Num RLSW                                   I               41
RLSW                                       R   N=          41
  1.00000000E+00  1.00000000E+00  1.00000000E+00  1.00000000E+00  0.00000000E+00
  0.00000000E+00  0.00000000E+00  1.00000000E+00  0.00000000E+00  0.00000000E+00
  0.00000000E+00  0.00000000E+00  1.00000000E+00  0.00000000E+00  0.00000000E+00
  0.00000000E+00  0.00000000E+00  1.00000000E+00  0.00000000E+00  0.00000000E+00
  0.00000000E+00  0.00000000E+00  1.00000000E+00  0.00000000E+00  0.00000000E+00
  0.00000000E+00  0.00000000E+00  1.00000000E+00  0.00000000E+00  0.00000000E+00
  0.00000000E+00  0.00000000E+00  1.00000000E+00  0.00000000E+00  0.00000000E+00
  0.00000000E+00  0.00000000E+00  0.00000000E+00  1.00000000E+00  1.00000000E+00
  0.00000000E+00
MxBond                                     I                1
NBond                                      I   N=           1
           0
IBond                                      I   N=           1
           0
RBond                                      R   N=           1
  0.00000000E+00
Virial Ratio                               R      2.009527408094466E+00
SCF Energy                                 R     -3.736467701966087E+01
Total Energy                               R     -3.736467701966087E+01
S**2                                       R      7.515026937856479E-01
S**2 after annihilation                    R      7.500000013636509E-01
RMS Density                                R      2.017526113723759E-09
External E-field                           R   N=          35
  0.00000000E+00  0.00000000E+00  0.00000000E+00  0.00000000E+00  0.00000000E+00
  0.00000000E+00  0.00000000E+00  0.00000000E+00  0.00000000E+00  0.00000000E+00
  0.00000000E+00  0.00000000E+00  0.00000000E+00  0.00000000E+00  0.00000000E+00
  0.00000000E+00  0.00000000E+00  0.00000000E+00  0.00000000E+00  0.00000000E+00
  0.00000000E+00  0.00000000E+00  0.00000000E+00  0.00000000E+00  0.00000000E+00
  0.00000000E+00  0.00000000E+00  0.00000000E+00  0.00000000E+00  0.00000000E+00
  0.00000000E+00  0.00000000E+00  0.00000000E+00  0.00000000E+00  0.00000000E+00
IOpCl                                      I                1
IROHF                                      I                0
Alpha Orbital Energies                     R   N=          19
 -1.06090453E+01 -9.63745457E-01 -6.59769808E-01 -6.31145546E-01 -6.31145546E-01
 -1.86298871E-01 -1.31663650E-01 -1.24311515E-01 -1.24311515E-01  2.49856611E-01
  2.64410728E-01  2.64410728E-01  4.16905478E-01  1.09664174E+00  1.09664174E+00
  1.11021853E+00  1.12434446E+00  1.12436862E+00  3.32598954E+00
Beta Orbital Energies                      R   N=          19
 -1.05927056E+01 -9.09660767E-01 -6.11158937E-01 -6.11158937E-01 -5.40169508E-01
 -1.69695592E-01 -1.15508844E-01 -1.15508844E-01 -1.04187279E-01  2.76106806E-01
  2.76106806E-01  3.10923960E-01  4.48486171E-01  1.13024882E+00  1.13025056E+00
  1.19062436E+00  1.19062436E+00  1.20926451E+00  3.37307306E+00
Alpha MO coefficients                      R   N=         361
  9.92348129E-01  5.09782331E-02  0.00000000E+00  0.00000000E+00  0.00000000E+00
 -7.30141041E-03  0.00000000E+00  0.00000000E+00  0.00000000E+00  1.79569017E-03
  0.00000000E+00  0.00000000E+00  0.00000000E+00 -1.10062216E-02 -1.10062216E-02
 -1.04575767E-02  0.00000000E+00  0.00000000E+00  0.00000000E+00 -2.42106026E-01
  6.22307382E-01  0.00000000E+00  0.00000000E+00  0.00000000E+00  4.94492685E-01
  0.00000000E+00  0.00000000E+00  0.00000000E+00 -1.75412867E-02  0.00000000E+00
  0.00000000E+00  0.00000000E+00 -1.85334491E-02 -1.85334491E-02 -4.61399758E-03
  0.00000000E+00  0.00000000E+00  0.00000000E+00  0.00000000E+00  0.00000000E+00
  0.00000000E+00  0.00000000E+00  7.81834250E-01  0.00000000E+00  0.00000000E+00
  0.00000000E+00  3.15021132E-01  0.00000000E+00  0.00000000E+00  0.00000000E+00
  1.37695407E-02  0.00000000E+00  0.00000000E+00  0.00000000E+00  0.00000000E+00
  0.00000000E+00  0.00000000E+00  0.00000000E+00  0.00000000E+00  7.63335985E-01
  0.00000000E+00  0.00000000E+00  0.00000000E+00  3.37036449E-01  0.00000000E+00
  0.00000000E+00  0.00000000E+00  1.59018036E-02  0.00000000E+00  0.00000000E+00
  0.00000000E+00  0.00000000E+00  0.00000000E+00  0.00000000E+00  0.00000000E+00
  0.00000000E+00  0.00000000E+00  0.00000000E+00  0.00000000E+00  7.63335985E-01
  0.00000000E+00  0.00000000E+00  0.00000000E+00  3.37036449E-01  0.00000000E+00
  0.00000000E+00  0.00000000E+00  1.59018036E-02  0.00000000E+00  0.00000000E+00
  0.00000000E+00  0.00000000E+00  0.00000000E+00  0.00000000E+00  0.00000000E+00
  7.31757106E-02 -3.41234704E-01  0.00000000E+00  0.00000000E+00  0.00000000E+00
 -4.60849491E-01  0.00000000E+00  0.00000000E+00  0.00000000E+00  1.27929386E+00
  0.00000000E+00  0.00000000E+00  0.00000000E+00  1.27882101E-02  1.27882101E-02
  7.60792146E-03  0.00000000E+00  0.00000000E+00  0.00000000E+00  0.00000000E+00
  0.00000000E+00  0.00000000E+00  0.00000000E+00 -3.32574353E-01  0.00000000E+00
  0.00000000E+00  0.00000000E+00 -1.15933861E-02  0.00000000E+00  0.00000000E+00
  0.00000000E+00  1.00428043E+00  0.00000000E+00  0.00000000E+00  0.00000000E+00
  0.00000000E+00  0.00000000E+00  0.00000000E+00  0.00000000E+00  0.00000000E+00
 -3.32861939E-01  0.00000000E+00  0.00000000E+00  0.00000000E+00 -3.26119566E-02
  0.00000000E+00  0.00000000E+00  0.00000000E+00  1.01276152E+00  0.00000000E+00
  0.00000000E+00  0.00000000E+00  0.00000000E+00  0.00000000E+00  0.00000000E+00
  0.00000000E+00  0.00000000E+00  0.00000000E+00  0.00000000E+00  0.00000000E+00
 -3.32861939E-01  0.00000000E+00  0.00000000E+00  0.00000000E+00 -3.26119566E-02
  0.00000000E+00  0.00000000E+00  0.00000000E+00  1.01276152E+00  0.00000000E+00
  0.00000000E+00  0.00000000E+00  0.00000000E+00  0.00000000E+00  0.00000000E+00
  0.00000000E+00  0.00000000E+00  0.00000000E+00  0.00000000E+00  0.00000000E+00
 -9.29240610E-01  0.00000000E+00  0.00000000E+00  0.00000000E+00  1.50365915E+00
  0.00000000E+00  0.00000000E+00  0.00000000E+00 -7.93605913E-01  0.00000000E+00
  0.00000000E+00  0.00000000E+00  0.00000000E+00  0.00000000E+00  0.00000000E+00
  0.00000000E+00  0.00000000E+00 -9.44393832E-01  0.00000000E+00  0.00000000E+00
  0.00000000E+00  1.49856813E+00  0.00000000E+00  0.00000000E+00  0.00000000E+00
 -7.82713467E-01  0.00000000E+00  0.00000000E+00  0.00000000E+00  0.00000000E+00
  0.00000000E+00  0.00000000E+00  0.00000000E+00  0.00000000E+00  0.00000000E+00
  0.00000000E+00  0.00000000E+00 -9.44393832E-01  0.00000000E+00  0.00000000E+00
  0.00000000E+00  1.49856813E+00  0.00000000E+00  0.00000000E+00  0.00000000E+00
 -7.82713467E-01  0.00000000E+00  0.00000000E+00  0.00000000E+00  0.00000000E+00
  0.00000000E+00  0.00000000E+00  0.00000000E+00  7.25309820E-03 -1.73005144E+00
  0.00000000E+00  0.00000000E+00  0.00000000E+00  2.55369768E+00  0.00000000E+00
  0.00000000E+00  0.00000000E+00 -1.06571764E+00  0.00000000E+00  0.00000000E+00
  0.00000000E+00 -5.35639202E-02 -5.35639202E-02 -6.92146169E-02  0.00000000E+00
  0.00000000E+00  0.00000000E+00  0.00000000E+00  0.00000000E+00  0.00000000E+00
  0.00000000E+00  0.00000000E+00  0.00000000E+00  0.00000000E+00  0.00000000E+00
  0.00000000E+00  0.00000000E+00  0.00000000E+00  0.00000000E+00  0.00000000E+00
  0.00000000E+00  0.00000000E+00  0.00000000E+00  0.00000000E+00  0.00000000E+00
  1.00000000E+00  0.00000000E+00  0.00000000E+00  0.00000000E+00  0.00000000E+00
  0.00000000E+00  0.00000000E+00  0.00000000E+00  0.00000000E+00  0.00000000E+00
  0.00000000E+00  0.00000000E+00  0.00000000E+00  0.00000000E+00  0.00000000E+00
  0.00000000E+00  0.00000000E+00  0.00000000E+00  1.00000000E+00  0.00000000E+00
  1.34504169E-03 -1.91540245E-02  0.00000000E+00  0.00000000E+00  0.00000000E+00
  2.28077097E-02  0.00000000E+00  0.00000000E+00  0.00000000E+00 -7.21092597E-03
  0.00000000E+00  0.00000000E+00  0.00000000E+00 -5.03823479E-01 -5.03823479E-01
  9.96018479E-01  0.00000000E+00  0.00000000E+00  0.00000000E+00  0.00000000E+00
  0.00000000E+00  0.00000000E+00  0.00000000E+00  0.00000000E+00  0.00000000E+00
  0.00000000E+00  0.00000000E+00  0.00000000E+00  0.00000000E+00  0.00000000E+00
  0.00000000E+00  0.00000000E+00  0.00000000E+00  0.00000000E+00  0.00000000E+00
  1.00000000E+00  0.00000000E+00  0.00000000E+00 -5.69351148E-16 -1.41787364E-15
  0.00000000E+00  0.00000000E+00  0.00000000E+00  1.03674571E-14  0.00000000E+00
  0.00000000E+00  0.00000000E+00 -4.24217769E-15  0.00000000E+00  0.00000000E+00
  0.00000000E+00  8.66025404E-01 -8.66025404E-01  8.30798719E-15  0.00000000E+00
  0.00000000E+00  0.00000000E+00 -4.52293263E-01  3.06206140E+00  0.00000000E+00
  0.00000000E+00  0.00000000E+00  1.21949416E+00  0.00000000E+00  0.00000000E+00
  0.00000000E+00 -3.49907471E-01  0.00000000E+00  0.00000000E+00  0.00000000E+00
 -1.78985614E+00 -1.78985614E+00 -1.79273209E+00  0.00000000E+00  0.00000000E+00
  0.00000000E+00
Beta MO coefficients                       R   N=         361
  9.92801778E-01  4.79650823E-02  0.00000000E+00  0.00000000E+00  0.00000000E+00
 -7.46011395E-03  0.00000000E+00  0.00000000E+00  0.00000000E+00  1.86723937E-03
  0.00000000E+00  0.00000000E+00  0.00000000E+00 -9.46179521E-03 -9.46179521E-03
 -1.03595168E-02  0.00000000E+00  0.00000000E+00  0.00000000E+00 -2.40719023E-01
  6.05236958E-01  0.00000000E+00  0.00000000E+00  0.00000000E+00  5.11559078E-01
  0.00000000E+00  0.00000000E+00  0.00000000E+00 -1.30617164E-02  0.00000000E+00
  0.00000000E+00  0.00000000E+00 -1.62384474E-03 -1.62384474E-03 -4.21130960E-02
  0.00000000E+00  0.00000000E+00  0.00000000E+00  0.00000000E+00  0.00000000E+00
  0.00000000E+00  7.61391495E-01  0.00000000E+00  0.00000000E+00  0.00000000E+00
  3.38130273E-01  0.00000000E+00  0.00000000E+00  0.00000000E+00  1.88475439E-02
  0.00000000E+00  0.00000000E+00  0.00000000E+00  0.00000000E+00  0.00000000E+00
  0.00000000E+00  0.00000000E+00  0.00000000E+00  0.00000000E+00  7.61391495E-01
  0.00000000E+00  0.00000000E+00  0.00000000E+00  3.38130273E-01  0.00000000E+00
  0.00000000E+00  0.00000000E+00  1.88475439E-02  0.00000000E+00  0.00000000E+00
  0.00000000E+00  0.00000000E+00  0.00000000E+00  0.00000000E+00  0.00000000E+00
  0.00000000E+00  0.00000000E+00  0.00000000E+00  0.00000000E+00  0.00000000E+00
  7.30467568E-01  0.00000000E+00  0.00000000E+00  0.00000000E+00  3.68064512E-01
  0.00000000E+00  0.00000000E+00  0.00000000E+00  3.46846682E-02  0.00000000E+00
  0.00000000E+00  0.00000000E+00  0.00000000E+00  0.00000000E+00  0.00000000E+00
  7.51213914E-02 -3.22477476E-01  0.00000000E+00  0.00000000E+00  0.00000000E+00
 -4.99910800E-01  0.00000000E+00  0.00000000E+00  0.00000000E+00  1.29353205E+00
  0.00000000E+00  0.00000000E+00  0.00000000E+00  6.74102336E-03  6.74102336E-03
  1.96142635E-02  0.00000000E+00  0.00000000E+00  0.00000000E+00  0.00000000E+00
  0.00000000E+00  0.00000000E+00 -3.30090252E-01  0.00000000E+00  0.00000000E+00
  0.00000000E+00 -4.24606831E-02  0.00000000E+00  0.00000000E+00  0.00000000E+00
  1.01720547E+00  0.00000000E+00  0.00000000E+00  0.00000000E+00  0.00000000E+00
  0.00000000E+00  0.00000000E+00  0.00000000E+00  0.00000000E+00  0.00000000E+00
 -3.30090252E-01  0.00000000E+00  0.00000000E+00  0.00000000E+00 -4.24606831E-02
  0.00000000E+00  0.00000000E+00  0.00000000E+00  1.01720547E+00  0.00000000E+00
  0.00000000E+00  0.00000000E+00  0.00000000E+00  0.00000000E+00  0.00000000E+00
  0.00000000E+00  0.00000000E+00  0.00000000E+00  0.00000000E+00  0.00000000E+00
  0.00000000E+00 -3.20978026E-01  0.00000000E+00  0.00000000E+00  0.00000000E+00
 -1.03982864E-01  0.00000000E+00  0.00000000E+00  0.00000000E+00  1.04204850E+00
  0.00000000E+00  0.00000000E+00  0.00000000E+00  0.00000000E+00  0.00000000E+00
  0.00000000E+00  0.00000000E+00  0.00000000E+00 -9.46932956E-01  0.00000000E+00
  0.00000000E+00  0.00000000E+00  1.49807495E+00  0.00000000E+00  0.00000000E+00
  0.00000000E+00 -7.76863527E-01  0.00000000E+00  0.00000000E+00  0.00000000E+00
  0.00000000E+00  0.00000000E+00  0.00000000E+00  0.00000000E+00  0.00000000E+00
  0.00000000E+00  0.00000000E+00  0.00000000E+00 -9.46932956E-01  0.00000000E+00
  0.00000000E+00  0.00000000E+00  1.49807495E+00  0.00000000E+00  0.00000000E+00
  0.00000000E+00 -7.76863527E-01  0.00000000E+00  0.00000000E+00  0.00000000E+00
  0.00000000E+00  0.00000000E+00  0.00000000E+00  0.00000000E+00  0.00000000E+00
  0.00000000E+00  0.00000000E+00  0.00000000E+00 -9.74037394E-01  0.00000000E+00
  0.00000000E+00  0.00000000E+00  1.48797837E+00  0.00000000E+00  0.00000000E+00
  0.00000000E+00 -7.42637887E-01  0.00000000E+00  0.00000000E+00  0.00000000E+00
  0.00000000E+00  0.00000000E+00  0.00000000E+00  8.03216809E-03 -1.72713726E+00
  0.00000000E+00  0.00000000E+00  0.00000000E+00  2.54754209E+00  0.00000000E+00
  0.00000000E+00  0.00000000E+00 -1.04955393E+00  0.00000000E+00  0.00000000E+00
  0.00000000E+00 -7.62463536E-02 -7.62463536E-02 -4.40930819E-02  0.00000000E+00
  0.00000000E+00  0.00000000E+00 -6.24223752E-16 -1.00228972E-15  0.00000000E+00
  0.00000000E+00  0.00000000E+00  1.00546579E-14  0.00000000E+00  0.00000000E+00
  0.00000000E+00 -4.60764947E-15  0.00000000E+00  0.00000000E+00  0.00000000E+00
  8.66025404E-01 -8.66025404E-01 -1.38603538E-14  0.00000000E+00  0.00000000E+00
  0.00000000E+00  0.00000000E+00  0.00000000E+00  0.00000000E+00  0.00000000E+00
  0.00000000E+00  0.00000000E+00  0.00000000E+00  0.00000000E+00  0.00000000E+00
  0.00000000E+00  0.00000000E+00  0.00000000E+00  0.00000000E+00  0.00000000E+00
  0.00000000E+00  0.00000000E+00  1.00000000E+00  0.00000000E+00  0.00000000E+00
  0.00000000E+00  0.00000000E+00  0.00000000E+00  0.00000000E+00  0.00000000E+00
  0.00000000E+00  0.00000000E+00  0.00000000E+00  0.00000000E+00  0.00000000E+00
  0.00000000E+00  0.00000000E+00  0.00000000E+00  0.00000000E+00  0.00000000E+00
  0.00000000E+00  0.00000000E+00  1.00000000E+00  0.00000000E+00  0.00000000E+00
  0.00000000E+00  0.00000000E+00  0.00000000E+00  0.00000000E+00  0.00000000E+00
  0.00000000E+00  0.00000000E+00  0.00000000E+00  0.00000000E+00  0.00000000E+00
  0.00000000E+00  0.00000000E+00  0.00000000E+00  0.00000000E+00  0.00000000E+00
  0.00000000E+00  0.00000000E+00  1.00000000E+00 -9.55950726E-03  7.54519290E-02
  0.00000000E+00  0.00000000E+00  0.00000000E+00 -2.89436290E-02  0.00000000E+00
  0.00000000E+00  0.00000000E+00  8.87681116E-03  0.00000000E+00  0.00000000E+00
  0.00000000E+00 -5.10017272E-01 -5.10017272E-01  9.89006318E-01  0.00000000E+00
  0.00000000E+00  0.00000000E+00 -4.51606345E-01  3.06833359E+00  0.00000000E+00
  0.00000000E+00  0.00000000E+00  1.20977230E+00  0.00000000E+00  0.00000000E+00
  0.00000000E+00 -3.46559566E-01  0.00000000E+00  0.00000000E+00  0.00000000E+00
 -1.78741479E+00 -1.78741479E+00 -1.79682418E+00  0.00000000E+00  0.00000000E+00
  0.00000000E+00
Total SCF Density                          R   N=         190
  2.08697115E+00 -1.98148443E-01  7.58477682E-01  0.00000000E+00  0.00000000E+00
  1.14593794E-33  0.00000000E+00  0.00000000E+00  0.00000000E+00  1.14593794E-33
  0.00000000E+00  0.00000000E+00  9.35729343E-18 -9.35729343E-18  6.11264795E-01
 -2.57513615E-01  6.16610870E-01  0.00000000E+00  0.00000000E+00  0.00000000E+00
  5.06324670E-01  0.00000000E+00  0.00000000E+00  4.61727876E-34  0.00000000E+00
  3.77029423E-18  0.00000000E+00  1.86042039E-34  0.00000000E+00  0.00000000E+00
  0.00000000E+00  4.61727876E-34 -3.77029423E-18  0.00000000E+00  0.00000000E+00
  1.86042039E-34  0.00000000E+00  0.00000000E+00  3.77029423E-18 -3.77029423E-18
  2.46294310E-01  0.00000000E+00  1.51914853E-18 -1.51914853E-18  9.92383134E-02
  1.10268032E-02 -1.86404023E-02  0.00000000E+00  0.00000000E+00  0.00000000E+00
 -1.53829184E-02  0.00000000E+00  0.00000000E+00  0.00000000E+00  4.85016260E-04
  0.00000000E+00  0.00000000E+00  2.01820772E-35  0.00000000E+00  1.64799167E-19
  0.00000000E+00  8.13187808E-36  0.00000000E+00  6.64018237E-20  0.00000000E+00
  3.55443541E-37  0.00000000E+00  0.00000000E+00  0.00000000E+00  2.01820772E-35
 -1.64799167E-19  0.00000000E+00  0.00000000E+00  8.13187808E-36 -6.64018237E-20
  0.00000000E+00  0.00000000E+00  3.55443541E-37  0.00000000E+00  0.00000000E+00
  1.64799167E-19 -1.64799167E-19  1.07654986E-02  0.00000000E+00  6.64018237E-20
 -6.64018237E-20  4.33769630E-03  0.00000000E+00  2.90241677E-21 -2.90241677E-21
  1.89600252E-04 -1.54377405E-02 -1.35312265E-02  0.00000000E+00  0.00000000E+00
  0.00000000E+00 -9.84440049E-03  0.00000000E+00  0.00000000E+00  0.00000000E+00
  3.08879542E-04  0.00000000E+00  0.00000000E+00  0.00000000E+00  5.56788089E-04
 -1.54377405E-02 -1.35312265E-02  0.00000000E+00  0.00000000E+00  0.00000000E+00
 -9.84440049E-03  0.00000000E+00  0.00000000E+00  0.00000000E+00  3.08879542E-04
  0.00000000E+00  0.00000000E+00  0.00000000E+00  5.56788089E-04  5.56788089E-04
 -9.40800342E-03 -2.93897307E-02  0.00000000E+00  0.00000000E+00  0.00000000E+00
 -2.36712864E-02  0.00000000E+00  0.00000000E+00  0.00000000E+00  5.92882508E-04
  0.00000000E+00  0.00000000E+00  0.00000000E+00  3.67016452E-04  3.67016452E-04
  2.01148233E-03 -4.81329370E-32  2.43236038E-33  0.00000000E+00  0.00000000E+00
  0.00000000E+00  4.57804971E-33  0.00000000E+00  0.00000000E+00  0.00000000E+00
 -1.56718934E-34  0.00000000E+00  0.00000000E+00  0.00000000E+00  5.85069540E-34
  5.85721066E-34 -1.23789769E-34 -9.21321852E-53  1.06583165E-19 -2.80318948E-19
  0.00000000E+00  0.00000000E+00  0.00000000E+00 -2.44407547E-19  0.00000000E+00
  0.00000000E+00  0.00000000E+00  5.02010856E-21  0.00000000E+00  0.00000000E+00
  0.00000000E+00 -3.35445165E-21 -3.35445165E-21  2.90679965E-20  0.00000000E+00
  4.58485943E-36 -1.06583165E-19  2.80318948E-19  0.00000000E+00  0.00000000E+00
  0.00000000E+00  2.44407547E-19  0.00000000E+00  0.00000000E+00  0.00000000E+00
 -5.02010856E-21  0.00000000E+00  0.00000000E+00  0.00000000E+00  3.35445165E-21
  3.35445165E-21 -2.90679965E-20  0.00000000E+00  0.00000000E+00  4.58485943E-36
Spin SCF Density                           R   N=         190
 -2.30882749E-04 -2.00398299E-03  2.12528339E-02  0.00000000E+00  0.00000000E+00
  1.14593794E-33  0.00000000E+00  0.00000000E+00  0.00000000E+00  1.14593794E-33
  0.00000000E+00  0.00000000E+00  9.35729343E-18 -9.35729343E-18  6.11264795E-01
  3.58321579E-03 -1.90239960E-03  0.00000000E+00  0.00000000E+00  0.00000000E+00
 -1.71720171E-02  0.00000000E+00  0.00000000E+00  4.61727876E-34  0.00000000E+00
  3.77029423E-18  0.00000000E+00  1.86042039E-34  0.00000000E+00  0.00000000E+00
  0.00000000E+00  4.61727876E-34 -3.77029423E-18  0.00000000E+00  0.00000000E+00
  1.86042039E-34  0.00000000E+00  0.00000000E+00  3.77029423E-18 -3.77029423E-18
  2.46294310E-01  0.00000000E+00  1.51914853E-18 -1.51914853E-18  9.92383134E-02
  1.03079880E-03 -3.00865984E-03  0.00000000E+00  0.00000000E+00  0.00000000E+00
 -1.99137958E-03  0.00000000E+00  0.00000000E+00  0.00000000E+00  1.36826222E-04
  0.00000000E+00  0.00000000E+00  2.01820772E-35  0.00000000E+00  1.64799167E-19
  0.00000000E+00  8.13187808E-36  0.00000000E+00  6.64018237E-20  0.00000000E+00
  3.55443541E-37  0.00000000E+00  0.00000000E+00  0.00000000E+00  2.01820772E-35
 -1.64799167E-19  0.00000000E+00  0.00000000E+00  8.13187808E-36 -6.64018237E-20
  0.00000000E+00  0.00000000E+00  3.55443541E-37  0.00000000E+00  0.00000000E+00
  1.64799167E-19 -1.64799167E-19  1.07654986E-02  0.00000000E+00  6.64018237E-20
 -6.64018237E-20  4.33769630E-03  0.00000000E+00  2.90241677E-21 -2.90241677E-21
  1.89600252E-04  2.56785304E-03 -1.06579333E-02  0.00000000E+00  0.00000000E+00
  0.00000000E+00 -8.32418760E-03  0.00000000E+00  0.00000000E+00  0.00000000E+00
  3.01794016E-04  0.00000000E+00  0.00000000E+00  0.00000000E+00  3.72463208E-04
  2.56785304E-03 -1.06579333E-02  0.00000000E+00  0.00000000E+00  0.00000000E+00
 -8.32418760E-03  0.00000000E+00  0.00000000E+00  0.00000000E+00  3.01794016E-04
  0.00000000E+00  0.00000000E+00  0.00000000E+00  3.72463208E-04  3.72463208E-04
 -9.11295665E-03  2.25808637E-02  0.00000000E+00  0.00000000E+00  0.00000000E+00
  1.92608204E-02  0.00000000E+00  0.00000000E+00  0.00000000E+00 -4.68568735E-04
  0.00000000E+00  0.00000000E+00  0.00000000E+00  3.42069399E-05  3.42069399E-05
 -1.75018256E-03  5.62917687E-33 -1.37741093E-32  0.00000000E+00  0.00000000E+00
  0.00000000E+00 -1.13608604E-32  0.00000000E+00  0.00000000E+00  0.00000000E+00
  3.28721560E-34  0.00000000E+00  0.00000000E+00  0.00000000E+00  1.93285780E-34
  1.92634255E-34  6.75414354E-34  9.21321852E-53 -2.06472959E-19  5.87537416E-19
  0.00000000E+00  0.00000000E+00  0.00000000E+00  4.87599607E-19  0.00000000E+00
  0.00000000E+00  0.00000000E+00 -1.36171276E-20  0.00000000E+00  0.00000000E+00
  0.00000000E+00 -5.97910371E-21 -5.97910371E-21 -3.15413220E-20  0.00000000E+00
 -3.61475410E-36  2.06472959E-19 -5.87537416E-19  0.00000000E+00  0.00000000E+00
  0.00000000E+00 -4.87599607E-19  0.00000000E+00  0.00000000E+00  0.00000000E+00
  1.36171276E-20  0.00000000E+00  0.00000000E+00  0.00000000E+00  5.97910371E-21
  5.97910371E-21  3.15413220E-20  0.00000000E+00  0.00000000E+00 -3.61475410E-36
Mulliken Charges                           R   N=           1
  1.00000000E+00
ONIOM Charges                              I   N=          16
           1           0           0           0           0           0
           0           0           0           0           0           0
           0           0           0           0
ONIOM Multiplicities                       I   N=          16
           2           0           0           0           0           0
           0           0           0           0           0           0
           0           0           0           0
Atom Layers                                I   N=           1
           1
Atom Modifiers                             I   N=           1
           0
Force Field                                I                0
Int Atom Modified Types                    I   N=           1
           0
Link Atoms                                 I   N=           1
           0
Atom Modified MM Charges                   R   N=           1
  0.00000000E+00
Link Distances                             R   N=           4
  0.00000000E+00  0.00000000E+00  0.00000000E+00  0.00000000E+00
Cartesian Gradient                         R   N=           3
  0.00000000E+00  0.00000000E+00  0.00000000E+00
Dipole Moment                              R   N=           3
  0.00000000E+00  0.00000000E+00  0.00000000E+00
Quadrupole Moment                          R   N=           6
  3.52757978E-01  3.52757978E-01 -7.05515956E-01 -7.17004913E-33 -1.62001473E-17
  1.62001473E-17
Anisotropic Hyperfine tensors              R   N=           6
 -8.35268570E-01  0.00000000E+00 -8.35268570E-01  0.00000000E+00  0.00000000E+00
  1.67053714E+00
Isotropic Hyperfine splittings             R   N=           1
 -4.60983179E-04
QEq coupling tensors                       R   N=           6
 -8.10832421E-01  0.00000000E+00 -8.10832421E-01  0.00000000E+00  0.00000000E+00
  1.62166484E+00
