fubar
SP        UPBEPBE                                                     6-31+G(d,p)
Number of atoms                            I                1
Info1-9                                    I   N=           9
          11          10           0           0           0         110
           1          18         902
Charge                                     I               -1
Multiplicity                               I                4
Number of electrons                        I                7
Number of alpha electrons                  I                5
Number of beta electrons                   I                2
Number of basis functions                  I               19
Number of independent functions            I               19
Number of point charges in /Mol/           I                0
Number of translation vectors              I                0
Atomic numbers                             I   N=           1
           6
Nuclear charges                            R   N=           1
  6.00000000E+00
Current cartesian coordinates              R   N=           3
  0.00000000E+00  0.00000000E+00  0.00000000E+00
Force Field                                I                0
Int Atom Types                             I   N=           1
           0
MM charges                                 R   N=           1
  0.00000000E+00
Integer atomic weights                     I   N=           1
          12
Real atomic weights                        R   N=           1
  1.20000000E+01
Atom fragment info                         I   N=           1
           0
Atom residue num                           I   N=           1
           0
Nuclear spins                              I   N=           1
           0
Nuclear ZEff                               R   N=           1
 -3.60000000E+00
Nuclear ZNuc                               R   N=           1
  6.00000000E+00
Nuclear QMom                               R   N=           1
  0.00000000E+00
Nuclear GFac                               R   N=           1
  0.00000000E+00
MicOpt                                     I   N=           1
          -1
Number of contracted shells                I                5
Number of primitive shells                 I               12
Pure/Cartesian d shells                    I                1
Pure/Cartesian f shells                    I                0
Highest angular momentum                   I                2
Largest degree of contraction              I                6
Shell types                                I   N=           5
           0          -1          -1          -1           2
Number of primitives per shell             I   N=           5
           6           3           1           1           1
Shell to atom map                          I   N=           5
           1           1           1           1           1
Primitive exponents                        R   N=          12
  3.04752488E+03  4.57369518E+02  1.03948685E+02  2.92101553E+01  9.28666296E+00
  3.16392696E+00  7.86827235E+00  1.88128854E+00  5.44249258E-01  1.68714478E-01
  4.38000000E-02  8.00000000E-01
Contraction coefficients                   R   N=          12
  1.83473713E-03  1.40373228E-02  6.88426223E-02  2.32184443E-01  4.67941348E-01
  3.62311985E-01 -1.19332420E-01 -1.60854152E-01  1.14345644E+00  1.00000000E+00
  1.00000000E+00  1.00000000E+00
P(S=P) Contraction coefficients            R   N=          12
  0.00000000E+00  0.00000000E+00  0.00000000E+00  0.00000000E+00  0.00000000E+00
  0.00000000E+00  6.89990666E-02  3.16423961E-01  7.44308291E-01  1.00000000E+00
  1.00000000E+00  0.00000000E+00
Coordinates of each shell                  R   N=          15
  0.00000000E+00  0.00000000E+00  0.00000000E+00  0.00000000E+00  0.00000000E+00
  0.00000000E+00  0.00000000E+00  0.00000000E+00  0.00000000E+00  0.00000000E+00
  0.00000000E+00  0.00000000E+00  0.00000000E+00  0.00000000E+00  0.00000000E+00
Constraint Structure                       R   N=           3
  0.00000000E+00  0.00000000E+00  0.00000000E+00
Num ILSW                                   I              100
ILSW                                       I   N=         100
           1           1           0           0           2           0
           0           0           0           0        1009          -1
           0           0           0           0           0           0
           0           0           0           0           0           0
           1           0           0           0           0           0
           0           0      100000           0          -1           0
           0           0           0           0           0           0
           0           0           0           1           0           0
           0           0           1           0           0           0
           0           0           4          41           0           0
           0           0           0           0           0           0
           0           0           0           1           0           0
           0           0           0           0           0           0
           0           0           0           0           0           0
           0           0           0           0           0           0
           0           0           0           0           0           0
           0           0           0           0
Num RLSW                                   I               41
RLSW                                       R   N=          41
  1.00000000E+00  1.00000000E+00  1.00000000E+00  1.00000000E+00  0.00000000E+00
  0.00000000E+00  0.00000000E+00  1.00000000E+00  0.00000000E+00  0.00000000E+00
  0.00000000E+00  0.00000000E+00  1.00000000E+00  0.00000000E+00  0.00000000E+00
  0.00000000E+00  0.00000000E+00  1.00000000E+00  0.00000000E+00  0.00000000E+00
  0.00000000E+00  0.00000000E+00  1.00000000E+00  0.00000000E+00  0.00000000E+00
  0.00000000E+00  0.00000000E+00  1.00000000E+00  0.00000000E+00  0.00000000E+00
  0.00000000E+00  0.00000000E+00  1.00000000E+00  0.00000000E+00  0.00000000E+00
  0.00000000E+00  0.00000000E+00  0.00000000E+00  1.00000000E+00  1.00000000E+00
  0.00000000E+00
MxBond                                     I                1
NBond                                      I   N=           1
           0
IBond                                      I   N=           1
           0
RBond                                      R   N=           1
  0.00000000E+00
Virial Ratio                               R      2.008578817686261E+00
SCF Energy                                 R     -3.784605984460827E+01
Total Energy                               R     -3.784605984460827E+01
S**2                                       R      3.752887505099545E+00
S**2 after annihilation                    R      3.750000007137256E+00
RMS Density                                R      4.959972452091559E-09
External E-field                           R   N=          35
  0.00000000E+00  0.00000000E+00  0.00000000E+00  0.00000000E+00  0.00000000E+00
  0.00000000E+00  0.00000000E+00  0.00000000E+00  0.00000000E+00  0.00000000E+00
  0.00000000E+00  0.00000000E+00  0.00000000E+00  0.00000000E+00  0.00000000E+00
  0.00000000E+00  0.00000000E+00  0.00000000E+00  0.00000000E+00  0.00000000E+00
  0.00000000E+00  0.00000000E+00  0.00000000E+00  0.00000000E+00  0.00000000E+00
  0.00000000E+00  0.00000000E+00  0.00000000E+00  0.00000000E+00  0.00000000E+00
  0.00000000E+00  0.00000000E+00  0.00000000E+00  0.00000000E+00  0.00000000E+00
IOpCl                                      I                1
IROHF                                      I                0
Alpha Orbital Energies                     R   N=          19
 -9.69437216E+00 -2.24273857E-01  7.37958375E-02  7.37958375E-02  7.37958375E-02
  1.96790078E-01  2.28434764E-01  2.28434764E-01  2.28434764E-01  8.48815383E-01
  8.48815383E-01  8.48815383E-01  9.97475461E-01  1.87035834E+00  1.87035834E+00
  1.87035834E+00  1.87035834E+00  1.87035834E+00  4.09925502E+00
Beta Orbital Energies                      R   N=          19
 -9.66400475E+00 -1.08902217E-01  1.62348708E-01  1.62348708E-01  1.62348708E-01
  2.39948616E-01  2.88289913E-01  2.88289913E-01  2.88289913E-01  9.34391469E-01
  9.34391469E-01  9.34391469E-01  1.08741310E+00  1.99947862E+00  1.99947862E+00
  1.99947862E+00  1.99947862E+00  1.99947862E+00  4.19849517E+00
Alpha MO coefficients                      R   N=         361
  9.91863329E-01  5.42169045E-02  0.00000000E+00  0.00000000E+00  0.00000000E+00
 -7.49152959E-03  0.00000000E+00  0.00000000E+00  0.00000000E+00  1.85025613E-03
  0.00000000E+00  0.00000000E+00  0.00000000E+00 -1.17591798E-02 -1.17591798E-02
 -1.17591798E-02  0.00000000E+00  0.00000000E+00  0.00000000E+00 -2.30570628E-01
  4.77121596E-01  0.00000000E+00  0.00000000E+00  0.00000000E+00  5.65853042E-01
  0.00000000E+00  0.00000000E+00  0.00000000E+00  7.68655168E-02  0.00000000E+00
  0.00000000E+00  0.00000000E+00 -9.49575948E-03 -9.49575948E-03 -9.49575948E-03
  0.00000000E+00  0.00000000E+00  0.00000000E+00  0.00000000E+00  0.00000000E+00
  0.00000000E+00  5.54553607E-01  0.00000000E+00  0.00000000E+00  0.00000000E+00
  3.67012446E-01  0.00000000E+00  0.00000000E+00  0.00000000E+00  3.40950807E-01
  0.00000000E+00  0.00000000E+00  0.00000000E+00  0.00000000E+00  0.00000000E+00
  0.00000000E+00  0.00000000E+00  0.00000000E+00  0.00000000E+00  5.54553607E-01
  0.00000000E+00  0.00000000E+00  0.00000000E+00  3.67012446E-01  0.00000000E+00
  0.00000000E+00  0.00000000E+00  3.40950807E-01  0.00000000E+00  0.00000000E+00
  0.00000000E+00  0.00000000E+00  0.00000000E+00  0.00000000E+00  0.00000000E+00
  0.00000000E+00  0.00000000E+00  0.00000000E+00  0.00000000E+00  0.00000000E+00
  5.54553607E-01  0.00000000E+00  0.00000000E+00  0.00000000E+00  3.67012446E-01
  0.00000000E+00  0.00000000E+00  0.00000000E+00  3.40950807E-01  0.00000000E+00
  0.00000000E+00  0.00000000E+00  0.00000000E+00  0.00000000E+00  0.00000000E+00
  9.76181746E-02 -1.23116218E-01  0.00000000E+00  0.00000000E+00  0.00000000E+00
 -9.27918452E-01  0.00000000E+00  0.00000000E+00  0.00000000E+00  1.43270104E+00
  0.00000000E+00  0.00000000E+00  0.00000000E+00  2.62876824E-02  2.62876824E-02
  2.62876824E-02  0.00000000E+00  0.00000000E+00  0.00000000E+00  0.00000000E+00
  0.00000000E+00  0.00000000E+00 -3.24952247E-01  0.00000000E+00  0.00000000E+00
  0.00000000E+00 -5.12171286E-01  0.00000000E+00  0.00000000E+00  0.00000000E+00
  1.10899770E+00  0.00000000E+00  0.00000000E+00  0.00000000E+00  0.00000000E+00
  0.00000000E+00  0.00000000E+00  0.00000000E+00  0.00000000E+00  0.00000000E+00
  0.00000000E+00  0.00000000E+00 -3.24952247E-01  0.00000000E+00  0.00000000E+00
  0.00000000E+00 -5.12171286E-01  0.00000000E+00  0.00000000E+00  0.00000000E+00
  1.10899770E+00  0.00000000E+00  0.00000000E+00  0.00000000E+00  0.00000000E+00
  0.00000000E+00  0.00000000E+00  0.00000000E+00  0.00000000E+00 -3.24952247E-01
  0.00000000E+00  0.00000000E+00  0.00000000E+00 -5.12171286E-01  0.00000000E+00
  0.00000000E+00  0.00000000E+00  1.10899770E+00  0.00000000E+00  0.00000000E+00
  0.00000000E+00  0.00000000E+00  0.00000000E+00  0.00000000E+00  0.00000000E+00
  0.00000000E+00  0.00000000E+00  0.00000000E+00 -1.08269799E+00  0.00000000E+00
  0.00000000E+00  0.00000000E+00  1.40119449E+00  0.00000000E+00  0.00000000E+00
  0.00000000E+00 -5.40791822E-01  0.00000000E+00  0.00000000E+00  0.00000000E+00
  0.00000000E+00  0.00000000E+00  0.00000000E+00  0.00000000E+00  0.00000000E+00
  0.00000000E+00  0.00000000E+00  0.00000000E+00  0.00000000E+00 -1.08269799E+00
  0.00000000E+00  0.00000000E+00  0.00000000E+00  1.40119449E+00  0.00000000E+00
  0.00000000E+00  0.00000000E+00 -5.40791822E-01  0.00000000E+00  0.00000000E+00
  0.00000000E+00  0.00000000E+00  0.00000000E+00  0.00000000E+00  0.00000000E+00
  0.00000000E+00  0.00000000E+00 -1.08269799E+00  0.00000000E+00  0.00000000E+00
  0.00000000E+00  1.40119449E+00  0.00000000E+00  0.00000000E+00  0.00000000E+00
 -5.40791822E-01  0.00000000E+00  0.00000000E+00  0.00000000E+00  0.00000000E+00
  0.00000000E+00  0.00000000E+00  0.00000000E+00  2.27248379E-02 -1.70892435E+00
  0.00000000E+00  0.00000000E+00  0.00000000E+00  2.44346881E+00  0.00000000E+00
  0.00000000E+00  0.00000000E+00 -8.56609735E-01  0.00000000E+00  0.00000000E+00
  0.00000000E+00 -1.08934614E-01 -1.08934614E-01 -1.08934614E-01  0.00000000E+00
  0.00000000E+00  0.00000000E+00 -1.86688705E-17 -7.56471024E-15  0.00000000E+00
  0.00000000E+00  0.00000000E+00  1.02662589E-14  0.00000000E+00  0.00000000E+00
  0.00000000E+00 -2.89579634E-15  0.00000000E+00  0.00000000E+00  0.00000000E+00
 -7.91173057E-01 -1.34067976E-01  9.25241034E-01  0.00000000E+00  0.00000000E+00
  0.00000000E+00  0.00000000E+00  0.00000000E+00  0.00000000E+00  0.00000000E+00
  0.00000000E+00  0.00000000E+00  0.00000000E+00  0.00000000E+00  0.00000000E+00
  0.00000000E+00  0.00000000E+00  0.00000000E+00  0.00000000E+00  0.00000000E+00
  0.00000000E+00  0.00000000E+00  0.00000000E+00  1.00000000E+00  0.00000000E+00
  0.00000000E+00  0.00000000E+00  0.00000000E+00  0.00000000E+00  0.00000000E+00
  0.00000000E+00  0.00000000E+00  0.00000000E+00  0.00000000E+00  0.00000000E+00
  0.00000000E+00  0.00000000E+00  0.00000000E+00  0.00000000E+00  0.00000000E+00
  0.00000000E+00  1.00000000E+00  0.00000000E+00  0.00000000E+00  0.00000000E+00
  0.00000000E+00  0.00000000E+00  0.00000000E+00  0.00000000E+00  0.00000000E+00
  0.00000000E+00  0.00000000E+00  0.00000000E+00  0.00000000E+00  0.00000000E+00
  0.00000000E+00  0.00000000E+00  0.00000000E+00  0.00000000E+00  0.00000000E+00
  0.00000000E+00  0.00000000E+00  1.00000000E+00 -7.52993742E-17  6.63089544E-16
  0.00000000E+00  0.00000000E+00  0.00000000E+00 -1.47588421E-15  0.00000000E+00
  0.00000000E+00  0.00000000E+00  2.51463233E-16  0.00000000E+00  0.00000000E+00
  0.00000000E+00 -6.11592342E-01  9.90972138E-01 -3.79379795E-01  0.00000000E+00
  0.00000000E+00  0.00000000E+00 -4.54254366E-01  3.11605628E+00  0.00000000E+00
  0.00000000E+00  0.00000000E+00  1.14638490E+00  0.00000000E+00  0.00000000E+00
  0.00000000E+00 -3.20656826E-01  0.00000000E+00  0.00000000E+00  0.00000000E+00
 -1.78833278E+00 -1.78833278E+00 -1.78833278E+00  0.00000000E+00  0.00000000E+00
  0.00000000E+00
Beta MO coefficients                       R   N=         361
  9.92801981E-01  4.80023075E-02  0.00000000E+00  0.00000000E+00  0.00000000E+00
 -7.77755282E-03  0.00000000E+00  0.00000000E+00  0.00000000E+00  1.98634560E-03
  0.00000000E+00  0.00000000E+00  0.00000000E+00 -9.59951174E-03 -9.59951174E-03
 -9.59951174E-03  0.00000000E+00  0.00000000E+00  0.00000000E+00 -2.24276167E-01
  4.47181881E-01  0.00000000E+00  0.00000000E+00  0.00000000E+00  5.58861958E-01
  0.00000000E+00  0.00000000E+00  0.00000000E+00  1.35721216E-01  0.00000000E+00
  0.00000000E+00  0.00000000E+00 -1.26046850E-02 -1.26046850E-02 -1.26046850E-02
  0.00000000E+00  0.00000000E+00  0.00000000E+00  0.00000000E+00  0.00000000E+00
  0.00000000E+00  4.32446498E-01  0.00000000E+00  0.00000000E+00  0.00000000E+00
  2.44815735E-01  0.00000000E+00  0.00000000E+00  0.00000000E+00  6.08548886E-01
  0.00000000E+00  0.00000000E+00  0.00000000E+00  0.00000000E+00  0.00000000E+00
  0.00000000E+00  0.00000000E+00  0.00000000E+00  0.00000000E+00  0.00000000E+00
  0.00000000E+00  4.32446498E-01  0.00000000E+00  0.00000000E+00  0.00000000E+00
  2.44815735E-01  0.00000000E+00  0.00000000E+00  0.00000000E+00  6.08548886E-01
  0.00000000E+00  0.00000000E+00  0.00000000E+00  0.00000000E+00  0.00000000E+00
  0.00000000E+00  0.00000000E+00  0.00000000E+00  4.32446498E-01  0.00000000E+00
  0.00000000E+00  0.00000000E+00  2.44815735E-01  0.00000000E+00  0.00000000E+00
  0.00000000E+00  6.08548886E-01  0.00000000E+00  0.00000000E+00  0.00000000E+00
  0.00000000E+00  0.00000000E+00  0.00000000E+00  0.00000000E+00  0.00000000E+00
  1.08478836E-01 -1.13208739E-01  0.00000000E+00  0.00000000E+00  0.00000000E+00
 -1.00710763E+00  0.00000000E+00  0.00000000E+00  0.00000000E+00  1.44474798E+00
  0.00000000E+00  0.00000000E+00  0.00000000E+00  3.00421823E-02  3.00421823E-02
  3.00421823E-02  0.00000000E+00  0.00000000E+00  0.00000000E+00  0.00000000E+00
  0.00000000E+00  0.00000000E+00  0.00000000E+00 -4.21766050E-01  0.00000000E+00
  0.00000000E+00  0.00000000E+00 -6.35926394E-01  0.00000000E+00  0.00000000E+00
  0.00000000E+00  9.99748069E-01  0.00000000E+00  0.00000000E+00  0.00000000E+00
  0.00000000E+00  0.00000000E+00  0.00000000E+00  0.00000000E+00  0.00000000E+00
 -4.21766050E-01  0.00000000E+00  0.00000000E+00  0.00000000E+00 -6.35926394E-01
  0.00000000E+00  0.00000000E+00  0.00000000E+00  9.99748069E-01  0.00000000E+00
  0.00000000E+00  0.00000000E+00  0.00000000E+00  0.00000000E+00  0.00000000E+00
  0.00000000E+00  0.00000000E+00  0.00000000E+00  0.00000000E+00  0.00000000E+00
 -4.21766050E-01  0.00000000E+00  0.00000000E+00  0.00000000E+00 -6.35926394E-01
  0.00000000E+00  0.00000000E+00  0.00000000E+00  9.99748069E-01  0.00000000E+00
  0.00000000E+00  0.00000000E+00  0.00000000E+00  0.00000000E+00  0.00000000E+00
  0.00000000E+00  0.00000000E+00  0.00000000E+00 -1.10474523E+00  0.00000000E+00
  0.00000000E+00  0.00000000E+00  1.37696275E+00  0.00000000E+00  0.00000000E+00
  0.00000000E+00 -5.18412180E-01  0.00000000E+00  0.00000000E+00  0.00000000E+00
  0.00000000E+00  0.00000000E+00  0.00000000E+00  0.00000000E+00  0.00000000E+00
  0.00000000E+00  0.00000000E+00  0.00000000E+00 -1.10474523E+00  0.00000000E+00
  0.00000000E+00  0.00000000E+00  1.37696275E+00  0.00000000E+00  0.00000000E+00
  0.00000000E+00 -5.18412180E-01  0.00000000E+00  0.00000000E+00  0.00000000E+00
  0.00000000E+00  0.00000000E+00  0.00000000E+00  0.00000000E+00  0.00000000E+00
  0.00000000E+00  0.00000000E+00  0.00000000E+00 -1.10474523E+00  0.00000000E+00
  0.00000000E+00  0.00000000E+00  1.37696275E+00  0.00000000E+00  0.00000000E+00
  0.00000000E+00 -5.18412180E-01  0.00000000E+00  0.00000000E+00  0.00000000E+00
  0.00000000E+00  0.00000000E+00  0.00000000E+00  2.54049676E-02 -1.70338854E+00
  0.00000000E+00  0.00000000E+00  0.00000000E+00  2.41994346E+00  0.00000000E+00
  0.00000000E+00  0.00000000E+00 -8.30456603E-01  0.00000000E+00  0.00000000E+00
  0.00000000E+00 -1.17188481E-01 -1.17188481E-01 -1.17188481E-01  0.00000000E+00
  0.00000000E+00  0.00000000E+00  0.00000000E+00  0.00000000E+00  0.00000000E+00
  0.00000000E+00  0.00000000E+00  0.00000000E+00  0.00000000E+00  0.00000000E+00
  0.00000000E+00  0.00000000E+00  0.00000000E+00  0.00000000E+00  0.00000000E+00
  0.00000000E+00  0.00000000E+00  0.00000000E+00  0.00000000E+00  1.00000000E+00
  0.00000000E+00  0.00000000E+00  0.00000000E+00  0.00000000E+00  0.00000000E+00
  0.00000000E+00  0.00000000E+00  0.00000000E+00  0.00000000E+00  0.00000000E+00
  0.00000000E+00  0.00000000E+00  0.00000000E+00  0.00000000E+00  0.00000000E+00
  0.00000000E+00  0.00000000E+00  0.00000000E+00  0.00000000E+00  1.00000000E+00
  0.00000000E+00  0.00000000E+00  0.00000000E+00  0.00000000E+00  0.00000000E+00
  0.00000000E+00  0.00000000E+00  0.00000000E+00  0.00000000E+00  0.00000000E+00
  0.00000000E+00  0.00000000E+00  0.00000000E+00  0.00000000E+00  0.00000000E+00
  0.00000000E+00  1.00000000E+00  0.00000000E+00  0.00000000E+00  2.26759893E-16
  2.94576104E-15  0.00000000E+00  0.00000000E+00  0.00000000E+00 -7.07359751E-15
  0.00000000E+00  0.00000000E+00  0.00000000E+00  2.64743238E-15  0.00000000E+00
  0.00000000E+00  0.00000000E+00 -6.58410971E-01  9.81026968E-01 -3.22615998E-01
  0.00000000E+00  0.00000000E+00  0.00000000E+00 -8.68123090E-20 -3.32786086E-15
  0.00000000E+00  0.00000000E+00  0.00000000E+00  4.69189988E-15  0.00000000E+00
  0.00000000E+00  0.00000000E+00 -1.32081258E-15  0.00000000E+00  0.00000000E+00
  0.00000000E+00 -7.52658617E-01 -1.93871318E-01  9.46529935E-01  0.00000000E+00
  0.00000000E+00  0.00000000E+00 -4.52746938E-01  3.12399531E+00  0.00000000E+00
  0.00000000E+00  0.00000000E+00  1.13280063E+00  0.00000000E+00  0.00000000E+00
  0.00000000E+00 -3.15857480E-01  0.00000000E+00  0.00000000E+00  0.00000000E+00
 -1.78774541E+00 -1.78774541E+00 -1.78774541E+00  0.00000000E+00  0.00000000E+00
  0.00000000E+00
Total SCF Density                          R   N=         190
  2.07291125E+00 -1.08869919E-01  4.32860346E-01  0.00000000E+00  0.00000000E+00
  3.07529703E-01  0.00000000E+00  0.00000000E+00  1.68264076E-18  3.07529703E-01
  0.00000000E+00  0.00000000E+00 -8.54569921E-21  3.03178012E-19  3.07529703E-01
 -2.70960652E-01  5.19114140E-01  0.00000000E+00  0.00000000E+00  0.00000000E+00
  6.32632966E-01  0.00000000E+00  0.00000000E+00  2.03528076E-01  1.11359857E-18
 -5.65568042E-21  0.00000000E+00  1.34698136E-01  0.00000000E+00  0.00000000E+00
  1.11359857E-18  2.03528076E-01  2.00648058E-19  0.00000000E+00  7.36997343E-19
  1.34698136E-01  0.00000000E+00  0.00000000E+00 -5.65568042E-21  2.00648058E-19
  2.03528076E-01  0.00000000E+00 -3.74301976E-21  1.32792094E-19  1.34698136E-01
 -4.43547156E-02  9.75619311E-02  0.00000000E+00  0.00000000E+00  0.00000000E+00
  1.19314701E-01  0.00000000E+00  0.00000000E+00  0.00000000E+00  2.43359252E-02
  0.00000000E+00  0.00000000E+00  1.89075500E-01  1.03452167E-18 -5.25406923E-21
  0.00000000E+00  1.25133190E-01  6.84662990E-19 -3.47722705E-21  0.00000000E+00
  1.16247453E-01  0.00000000E+00  0.00000000E+00  1.03452167E-18  1.89075500E-01
  1.86399992E-19  0.00000000E+00  6.84662990E-19  1.25133190E-01  1.23362496E-19
  0.00000000E+00  6.36044911E-19  1.16247453E-01  0.00000000E+00  0.00000000E+00
 -5.25406923E-21  1.86399992E-19  1.89075500E-01  0.00000000E+00 -3.47722705E-21
  1.23362496E-19  1.25133190E-01  0.00000000E+00 -3.23030835E-21  1.14602497E-19
  1.16247453E-01 -1.61775399E-02 -1.12655637E-02  0.00000000E+00  0.00000000E+00
  0.00000000E+00 -1.22547284E-02  0.00000000E+00  0.00000000E+00  0.00000000E+00
 -2.48144508E-03  0.00000000E+00  0.00000000E+00  0.00000000E+00  4.79476469E-04
 -1.61775399E-02 -1.12655637E-02  0.00000000E+00  0.00000000E+00  0.00000000E+00
 -1.22547284E-02  0.00000000E+00  0.00000000E+00  0.00000000E+00 -2.48144508E-03
  0.00000000E+00  0.00000000E+00  0.00000000E+00  4.79476469E-04  4.79476469E-04
 -1.61775399E-02 -1.12655637E-02  0.00000000E+00  0.00000000E+00  0.00000000E+00
 -1.22547284E-02  0.00000000E+00  0.00000000E+00  0.00000000E+00 -2.48144508E-03
  0.00000000E+00  0.00000000E+00  0.00000000E+00  4.79476469E-04  4.79476469E-04
  4.79476469E-04 -1.02208305E-19 -7.11748621E-20  0.00000000E+00  0.00000000E+00
  0.00000000E+00 -7.74243193E-20  0.00000000E+00  0.00000000E+00  0.00000000E+00
 -1.56775565E-20  0.00000000E+00  0.00000000E+00  0.00000000E+00  3.02929107E-21
  3.02929107E-21  3.02929107E-21  9.85465588E-36  5.19089664E-22  3.61478799E-22
  0.00000000E+00  0.00000000E+00  0.00000000E+00  3.93218184E-22  0.00000000E+00
  0.00000000E+00  0.00000000E+00  7.96222729E-23  0.00000000E+00  0.00000000E+00
  0.00000000E+00 -1.53849894E-23 -1.53849894E-23 -1.53849894E-23  1.59035134E-38
  3.54443119E-36 -1.84158802E-20 -1.28242782E-20  0.00000000E+00  0.00000000E+00
  0.00000000E+00 -1.39503046E-20  0.00000000E+00  0.00000000E+00  0.00000000E+00
 -2.82478026E-21  0.00000000E+00  0.00000000E+00  0.00000000E+00  5.45817304E-22
  5.45817304E-22  5.45817304E-22  9.26924687E-38 -7.82461901E-37  3.87276473E-36
Spin SCF Density                           R   N=         190
  1.00010523E-03 -3.59901408E-03  2.83086332E-02  0.00000000E+00  0.00000000E+00
  3.07529703E-01  0.00000000E+00  0.00000000E+00  1.68264076E-18  3.07529703E-01
  0.00000000E+00  0.00000000E+00 -8.54569921E-21  3.03178012E-19  3.07529703E-01
 -4.83867689E-03  2.00349374E-02  0.00000000E+00  0.00000000E+00  0.00000000E+00
  7.85860981E-03  0.00000000E+00  0.00000000E+00  2.03528076E-01  1.11359857E-18
 -5.65568042E-21  0.00000000E+00  1.34698136E-01  0.00000000E+00  0.00000000E+00
  1.11359857E-18  2.03528076E-01  2.00648058E-19  0.00000000E+00  7.36997343E-19
  1.34698136E-01  0.00000000E+00  0.00000000E+00 -5.65568042E-21  2.00648058E-19
  2.03528076E-01  0.00000000E+00 -3.74301976E-21  1.32792094E-19  1.34698136E-01
  1.25792570E-02 -2.40129047E-02  0.00000000E+00  0.00000000E+00  0.00000000E+00
 -3.23532504E-02  0.00000000E+00  0.00000000E+00  0.00000000E+00 -1.25124629E-02
  0.00000000E+00  0.00000000E+00  1.89075500E-01  1.03452167E-18 -5.25406923E-21
  0.00000000E+00  1.25133190E-01  6.84662990E-19 -3.47722705E-21  0.00000000E+00
  1.16247453E-01  0.00000000E+00  0.00000000E+00  1.03452167E-18  1.89075500E-01
  1.86399992E-19  0.00000000E+00  6.84662990E-19  1.25133190E-01  1.23362496E-19
  0.00000000E+00  6.36044911E-19  1.16247453E-01  0.00000000E+00  0.00000000E+00
 -5.25406923E-21  1.86399992E-19  1.89075500E-01  0.00000000E+00 -3.47722705E-21
  1.23362496E-19  1.25133190E-01  0.00000000E+00 -3.23030835E-21  1.14602497E-19
  1.16247453E-01 -2.77057222E-03  9.29207242E-04  0.00000000E+00  0.00000000E+00
  0.00000000E+00  1.68450811E-03  0.00000000E+00  0.00000000E+00  0.00000000E+00
  9.78137176E-04  0.00000000E+00  0.00000000E+00  0.00000000E+00 -2.25809520E-05
 -2.77057222E-03  9.29207242E-04  0.00000000E+00  0.00000000E+00  0.00000000E+00
  1.68450811E-03  0.00000000E+00  0.00000000E+00  0.00000000E+00  9.78137176E-04
  0.00000000E+00  0.00000000E+00  0.00000000E+00 -2.25809520E-05 -2.25809520E-05
 -2.77057222E-03  9.29207242E-04  0.00000000E+00  0.00000000E+00  0.00000000E+00
  1.68450811E-03  0.00000000E+00  0.00000000E+00  0.00000000E+00  9.78137176E-04
  0.00000000E+00  0.00000000E+00  0.00000000E+00 -2.25809520E-05 -2.25809520E-05
 -2.25809520E-05 -1.75042368E-20  5.87065138E-21  0.00000000E+00  0.00000000E+00
  0.00000000E+00  1.06425773E-20  0.00000000E+00  0.00000000E+00  0.00000000E+00
  6.17978649E-21  0.00000000E+00  0.00000000E+00  0.00000000E+00 -1.42664511E-22
 -1.42664511E-22 -1.42664511E-22 -4.64105177E-37  8.88995122E-23 -2.98155269E-23
  0.00000000E+00  0.00000000E+00  0.00000000E+00 -5.40509098E-23  0.00000000E+00
  0.00000000E+00  0.00000000E+00 -3.13855445E-23  0.00000000E+00  0.00000000E+00
  0.00000000E+00  7.24556322E-25  7.24556322E-25  7.24556322E-25 -7.48976217E-40
 -1.66925044E-37 -3.15391131E-21  1.05777327E-21  0.00000000E+00  0.00000000E+00
  0.00000000E+00  1.91757830E-21  0.00000000E+00  0.00000000E+00  0.00000000E+00
  1.11347320E-21  0.00000000E+00  0.00000000E+00  0.00000000E+00 -2.57052747E-23
 -2.57052747E-23 -2.57052747E-23 -4.36535330E-39  3.68500557E-38 -1.82387917E-37
Mulliken Charges                           R   N=           1
 -1.00000000E+00
ONIOM Charges                              I   N=          16
          -1           0           0           0           0           0
           0           0           0           0           0           0
           0           0           0           0
ONIOM Multiplicities                       I   N=          16
           4           0           0           0           0           0
           0           0           0           0           0           0
           0           0           0           0
Atom Layers                                I   N=           1
           1
Atom Modifiers                             I   N=           1
           0
Force Field                                I                0
Int Atom Modified Types                    I   N=           1
           0
Link Atoms                                 I   N=           1
           0
Atom Modified MM Charges                   R   N=           1
  0.00000000E+00
Link Distances                             R   N=           4
  0.00000000E+00  0.00000000E+00  0.00000000E+00  0.00000000E+00
Cartesian Gradient                         R   N=           3
  0.00000000E+00  0.00000000E+00  0.00000000E+00
Dipole Moment                              R   N=           3
  0.00000000E+00  0.00000000E+00  0.00000000E+00
Quadrupole Moment                          R   N=           6
  0.00000000E+00  0.00000000E+00  0.00000000E+00 -1.63612251E-17  8.30944500E-20
 -2.94796360E-18
Anisotropic Hyperfine tensors              R   N=           6
 -7.40148683E-17  0.00000000E+00  9.25185854E-17  0.00000000E+00  0.00000000E+00
 -7.40148683E-17
Isotropic Hyperfine splittings             R   N=           1
  5.97588613E-02
QEq coupling tensors                       R   N=           6
 -3.78956126E-14  0.00000000E+00 -3.78956126E-14  0.00000000E+00  0.00000000E+00
 -3.78956126E-14
