fubar
SP        UPBEPBE                                                     6-31+G(d,p)
Number of atoms                            I                1
Info1-9                                    I   N=           9
          11          10           0           0           0         110
           1          18         902
Full Title                                 C   N=           1
fubar
Route                                      C   N=           3
#PBEPBE/6-31+g** scf=tight
Charge                                     I               -2
Multiplicity                               I                4
Number of electrons                        I                7
Number of alpha electrons                  I                5
Number of beta electrons                   I                2
Number of basis functions                  I               19
Number of independent functions            I               19
Number of point charges in /Mol/           I                0
Number of translation vectors              I                0
Atomic numbers                             I   N=           1
           5
Nuclear charges                            R   N=           1
  5.00000000E+00
Current cartesian coordinates              R   N=           3
  0.00000000E+00  0.00000000E+00  0.00000000E+00
Number of symbols in /Mol/                 I                0
Int Atom Types                             I   N=           1
           0
Force Field                                I                0
Atom Types                                 C   N=           1

MM charges                                 R   N=           1
  0.00000000E+00
Integer atomic weights                     I   N=           1
          11
Real atomic weights                        R   N=           1
  1.10093053E+01
Atom fragment info                         I   N=           1
           0
Atom residue num                           I   N=           1
           0
Nuclear spins                              I   N=           1
           3
Nuclear ZEff                               R   N=           1
 -2.75000000E+00
Nuclear ZNuc                               R   N=           1
  5.00000000E+00
Nuclear QMom                               R   N=           1
  4.05900000E+00
Nuclear GFac                               R   N=           1
  2.68863700E+00
MicOpt                                     I   N=           1
          -1
Number of residues                         I                0
Number of secondary structures             I                0
SymInf integers                            I   N=          26
           1           8           1           1           1           1
          -1          -1          -1           1          -1          -1
          -1           1          -1          -1          -1          -1
           1           1           1          -1           1           1
           1          -1
RotTr to input orientation                 R   N=          12
  0.00000000E+00  0.00000000E+00 -1.00000000E+00  0.00000000E+00  1.00000000E+00
  0.00000000E+00  1.00000000E+00  0.00000000E+00  0.00000000E+00  0.00000000E+00
  0.00000000E+00  0.00000000E+00
Number of contracted shells                I                5
Number of primitive shells                 I               12
Pure/Cartesian d shells                    I                1
Pure/Cartesian f shells                    I                0
Highest angular momentum                   I                2
Largest degree of contraction              I                6
Shell types                                I   N=           5
           0          -1          -1          -1           2
Number of primitives per shell             I   N=           5
           6           3           1           1           1
Shell to atom map                          I   N=           5
           1           1           1           1           1
Primitive exponents                        R   N=          12
  2.06888225E+03  3.10649570E+02  7.06830330E+01  1.98610803E+01  6.29930484E+00
  2.12702697E+00  4.72797107E+00  1.19033774E+00  3.59411683E-01  1.26751247E-01
  3.15000000E-02  6.00000000E-01
Contraction coefficients                   R   N=          12
  1.86627459E-03  1.42514817E-02  6.95516185E-02  2.32572933E-01  4.67078712E-01
  3.63431440E-01 -1.30393797E-01 -1.30788951E-01  1.13094448E+00  1.00000000E+00
  1.00000000E+00  1.00000000E+00
P(S=P) Contraction coefficients            R   N=          12
  0.00000000E+00  0.00000000E+00  0.00000000E+00  0.00000000E+00  0.00000000E+00
  0.00000000E+00  7.45975799E-02  3.07846677E-01  7.43456834E-01  1.00000000E+00
  1.00000000E+00  0.00000000E+00
Coordinates of each shell                  R   N=          15
  0.00000000E+00  0.00000000E+00  0.00000000E+00  0.00000000E+00  0.00000000E+00
  0.00000000E+00  0.00000000E+00  0.00000000E+00  0.00000000E+00  0.00000000E+00
  0.00000000E+00  0.00000000E+00  0.00000000E+00  0.00000000E+00  0.00000000E+00
Num ILSW                                   I              100
ILSW                                       I   N=         100
           1           1           0           0           2           0
           0           0           0           0        1009          -1
           5           0           0           0           0           0
           0           0           0           0           0           0
           1           0           0           0           0           0
           0           0      100000           0          -1           0
           0           0           0           0           0           0
           0           0           0           1           0           0
           0 -2000000000           1           0           0           0
           0           0           4          52           0           0
           0           0           0           0           0           0
           0           0           0           1           0           1
           0           0           0           0           0           0
           0           0           0           0           0           0
           0           0           0           0           0           0
           0           0           0           0           0           0
           0           0           0           0
Num RLSW                                   I               52
RLSW                                       R   N=          52
  1.00000000E+00  1.00000000E+00  1.00000000E+00  1.00000000E+00  0.00000000E+00
  0.00000000E+00  0.00000000E+00  1.00000000E+00  0.00000000E+00  0.00000000E+00
  0.00000000E+00  0.00000000E+00  1.00000000E+00  0.00000000E+00  0.00000000E+00
  0.00000000E+00  0.00000000E+00  1.00000000E+00  0.00000000E+00  0.00000000E+00
  0.00000000E+00  0.00000000E+00  1.00000000E+00  0.00000000E+00  0.00000000E+00
  0.00000000E+00  0.00000000E+00  1.00000000E+00  0.00000000E+00  0.00000000E+00
  0.00000000E+00  0.00000000E+00  1.00000000E+00  0.00000000E+00  0.00000000E+00
  0.00000000E+00  0.00000000E+00  0.00000000E+00  1.00000000E+00  1.00000000E+00
  0.00000000E+00  1.00000000E+00  0.00000000E+00  0.00000000E+00  0.00000000E+00
  0.00000000E+00  0.00000000E+00  0.00000000E+00  0.00000000E+00  0.00000000E+00
  0.00000000E+00  0.00000000E+00
MxBond                                     I                1
NBond                                      I   N=           1
           0
IBond                                      I   N=           1
           0
RBond                                      R   N=           1
  0.00000000E+00
Virial Ratio                               R      2.002291433051077E+00
SCF Energy                                 R     -2.447474419544315E+01
Total Energy                               R     -2.447474419544315E+01
S**2                                       R      3.751058954788602E+00
S**2 after annihilation                    R      3.750000000683205E+00
RMS Density                                R      9.825295469007829E-09
Job Status                                 I                1
Nuclear derivative order                   I                0
External E-field                           R   N=          35
  0.00000000E+00  0.00000000E+00  0.00000000E+00  0.00000000E+00  0.00000000E+00
  0.00000000E+00  0.00000000E+00  0.00000000E+00  0.00000000E+00  0.00000000E+00
  0.00000000E+00  0.00000000E+00  0.00000000E+00  0.00000000E+00  0.00000000E+00
  0.00000000E+00  0.00000000E+00  0.00000000E+00  0.00000000E+00  0.00000000E+00
  0.00000000E+00  0.00000000E+00  0.00000000E+00  0.00000000E+00  0.00000000E+00
  0.00000000E+00  0.00000000E+00  0.00000000E+00  0.00000000E+00  0.00000000E+00
  0.00000000E+00  0.00000000E+00  0.00000000E+00  0.00000000E+00  0.00000000E+00
IOpCl                                      I                1
IROHF                                      I                0
Alpha Orbital Energies                     R   N=          19
 -6.22210511E+00  3.24841339E-02  2.14904906E-01  2.14904906E-01  2.14904906E-01
  2.68414560E-01  3.03991669E-01  3.03991669E-01  3.03991669E-01  8.07833767E-01
  8.07833767E-01  8.07833767E-01  9.17969509E-01  1.57296156E+00  1.57296156E+00
  1.57296156E+00  1.57296156E+00  1.57296156E+00  3.61078502E+00
Beta Orbital Energies                      R   N=          19
 -6.20990079E+00  8.86072370E-02  2.56813552E-01  2.56813552E-01  2.56813552E-01
  3.04404197E-01  3.52339974E-01  3.52339974E-01  3.52339974E-01  8.52375359E-01
  8.52375359E-01  8.52375359E-01  9.67781435E-01  1.63562808E+00  1.63562808E+00
  1.63562808E+00  1.63562808E+00  1.63562808E+00  3.64910701E+00
Alpha MO coefficients                      R   N=         361
  9.92108962E-01  6.04102047E-02  0.00000000E+00  0.00000000E+00  0.00000000E+00
 -1.51303355E-02  0.00000000E+00  0.00000000E+00  0.00000000E+00  3.33254162E-03
  0.00000000E+00  0.00000000E+00  0.00000000E+00 -1.14115834E-02 -1.14115834E-02
 -1.14115834E-02  0.00000000E+00  0.00000000E+00  0.00000000E+00 -2.26160748E-01
  3.92625154E-01  0.00000000E+00  0.00000000E+00  0.00000000E+00  5.28674265E-01
  0.00000000E+00  0.00000000E+00  0.00000000E+00  1.81308463E-01  0.00000000E+00
  0.00000000E+00  0.00000000E+00  6.70681429E-03  6.70681429E-03  6.70681429E-03
  0.00000000E+00  0.00000000E+00  0.00000000E+00  0.00000000E+00  0.00000000E+00
  0.00000000E+00  3.82063732E-01  0.00000000E+00  0.00000000E+00  0.00000000E+00
  1.46566231E-01  0.00000000E+00  0.00000000E+00  0.00000000E+00  7.33969371E-01
  0.00000000E+00  0.00000000E+00  0.00000000E+00  0.00000000E+00  0.00000000E+00
  0.00000000E+00  0.00000000E+00  0.00000000E+00  0.00000000E+00  3.82063732E-01
  0.00000000E+00  0.00000000E+00  0.00000000E+00  1.46566231E-01  0.00000000E+00
  0.00000000E+00  0.00000000E+00  7.33969371E-01  0.00000000E+00  0.00000000E+00
  0.00000000E+00  0.00000000E+00  0.00000000E+00  0.00000000E+00  0.00000000E+00
  0.00000000E+00  0.00000000E+00  0.00000000E+00  0.00000000E+00  0.00000000E+00
  3.82063732E-01  0.00000000E+00  0.00000000E+00  0.00000000E+00  1.46566231E-01
  0.00000000E+00  0.00000000E+00  0.00000000E+00  7.33969371E-01  0.00000000E+00
  0.00000000E+00  0.00000000E+00  0.00000000E+00  0.00000000E+00  0.00000000E+00
  1.17897919E-01 -4.25914600E-02  0.00000000E+00  0.00000000E+00  0.00000000E+00
 -1.06334941E+00  0.00000000E+00  0.00000000E+00  0.00000000E+00  1.43354907E+00
  0.00000000E+00  0.00000000E+00  0.00000000E+00  1.76812474E-02  1.76812474E-02
  1.76812474E-02  0.00000000E+00  0.00000000E+00  0.00000000E+00  0.00000000E+00
  0.00000000E+00  0.00000000E+00  0.00000000E+00 -4.39471217E-01  0.00000000E+00
  0.00000000E+00  0.00000000E+00 -6.72659331E-01  0.00000000E+00  0.00000000E+00
  0.00000000E+00  9.09814854E-01  0.00000000E+00  0.00000000E+00  0.00000000E+00
  0.00000000E+00  0.00000000E+00  0.00000000E+00  0.00000000E+00  0.00000000E+00
 -4.39471217E-01  0.00000000E+00  0.00000000E+00  0.00000000E+00 -6.72659331E-01
  0.00000000E+00  0.00000000E+00  0.00000000E+00  9.09814854E-01  0.00000000E+00
  0.00000000E+00  0.00000000E+00  0.00000000E+00  0.00000000E+00  0.00000000E+00
  0.00000000E+00  0.00000000E+00  0.00000000E+00  0.00000000E+00  0.00000000E+00
 -4.39471217E-01  0.00000000E+00  0.00000000E+00  0.00000000E+00 -6.72659331E-01
  0.00000000E+00  0.00000000E+00  0.00000000E+00  9.09814854E-01  0.00000000E+00
  0.00000000E+00  0.00000000E+00  0.00000000E+00  0.00000000E+00  0.00000000E+00
  0.00000000E+00  0.00000000E+00  0.00000000E+00  0.00000000E+00 -1.19497707E+00
  0.00000000E+00  0.00000000E+00  0.00000000E+00  1.43440794E+00  0.00000000E+00
  0.00000000E+00  0.00000000E+00 -4.82389318E-01  0.00000000E+00  0.00000000E+00
  0.00000000E+00  0.00000000E+00  0.00000000E+00  0.00000000E+00  0.00000000E+00
  0.00000000E+00  0.00000000E+00 -1.19497707E+00  0.00000000E+00  0.00000000E+00
  0.00000000E+00  1.43440794E+00  0.00000000E+00  0.00000000E+00  0.00000000E+00
 -4.82389318E-01  0.00000000E+00  0.00000000E+00  0.00000000E+00  0.00000000E+00
  0.00000000E+00  0.00000000E+00  0.00000000E+00  0.00000000E+00  0.00000000E+00
  0.00000000E+00  0.00000000E+00  0.00000000E+00 -1.19497707E+00  0.00000000E+00
  0.00000000E+00  0.00000000E+00  1.43440794E+00  0.00000000E+00  0.00000000E+00
  0.00000000E+00 -4.82389318E-01  0.00000000E+00  0.00000000E+00  0.00000000E+00
  0.00000000E+00  0.00000000E+00  0.00000000E+00  2.32419492E-02 -1.97808658E+00
  0.00000000E+00  0.00000000E+00  0.00000000E+00  2.56808251E+00  0.00000000E+00
  0.00000000E+00  0.00000000E+00 -7.91266639E-01  0.00000000E+00  0.00000000E+00
  0.00000000E+00 -7.64931347E-02 -7.64931347E-02 -7.64931347E-02  0.00000000E+00
  0.00000000E+00  0.00000000E+00  0.00000000E+00  0.00000000E+00  0.00000000E+00
  0.00000000E+00  0.00000000E+00  0.00000000E+00  0.00000000E+00  0.00000000E+00
  0.00000000E+00  0.00000000E+00  0.00000000E+00  0.00000000E+00  0.00000000E+00
  0.00000000E+00  0.00000000E+00  0.00000000E+00  1.00000000E+00  0.00000000E+00
  0.00000000E+00  0.00000000E+00  0.00000000E+00  0.00000000E+00  0.00000000E+00
  0.00000000E+00  0.00000000E+00  0.00000000E+00  0.00000000E+00  0.00000000E+00
  0.00000000E+00  0.00000000E+00  0.00000000E+00  0.00000000E+00  0.00000000E+00
  0.00000000E+00  0.00000000E+00  0.00000000E+00  1.00000000E+00  0.00000000E+00
  0.00000000E+00  0.00000000E+00  0.00000000E+00  0.00000000E+00  0.00000000E+00
  0.00000000E+00  0.00000000E+00  0.00000000E+00  0.00000000E+00  0.00000000E+00
  0.00000000E+00  0.00000000E+00  0.00000000E+00  0.00000000E+00  0.00000000E+00
  0.00000000E+00  0.00000000E+00  0.00000000E+00  1.00000000E+00  1.69134266E-16
  4.02634157E-16  0.00000000E+00  0.00000000E+00  0.00000000E+00 -3.41063106E-15
  0.00000000E+00  0.00000000E+00  0.00000000E+00  7.85832252E-16  0.00000000E+00
  0.00000000E+00  0.00000000E+00  8.73267465E-01 -8.58596943E-01 -1.46705219E-02
  0.00000000E+00  0.00000000E+00  0.00000000E+00 -4.64702861E-16  1.06757248E-15
  0.00000000E+00  0.00000000E+00  0.00000000E+00  5.53932647E-15  0.00000000E+00
  0.00000000E+00  0.00000000E+00 -2.16680738E-15  0.00000000E+00  0.00000000E+00
  0.00000000E+00 -4.87241146E-01 -5.12651236E-01  9.99892382E-01  0.00000000E+00
  0.00000000E+00  0.00000000E+00 -4.75464151E-01  4.16263692E+00  0.00000000E+00
  0.00000000E+00  0.00000000E+00  6.06598896E-01  0.00000000E+00  0.00000000E+00
  0.00000000E+00 -2.02361632E-01  0.00000000E+00  0.00000000E+00  0.00000000E+00
 -2.06358115E+00 -2.06358115E+00 -2.06358115E+00  0.00000000E+00  0.00000000E+00
  0.00000000E+00
Beta MO coefficients                       R   N=         361
  9.92584854E-01  5.67307907E-02  0.00000000E+00  0.00000000E+00  0.00000000E+00
 -1.47788253E-02  0.00000000E+00  0.00000000E+00  0.00000000E+00  3.30207266E-03
  0.00000000E+00  0.00000000E+00  0.00000000E+00 -1.03056786E-02 -1.03056786E-02
 -1.03056786E-02  0.00000000E+00  0.00000000E+00  0.00000000E+00 -2.22368380E-01
  3.90416671E-01  0.00000000E+00  0.00000000E+00  0.00000000E+00  5.06924392E-01
  0.00000000E+00  0.00000000E+00  0.00000000E+00  2.23361023E-01  0.00000000E+00
  0.00000000E+00  0.00000000E+00  2.84776448E-03  2.84776448E-03  2.84776448E-03
  0.00000000E+00  0.00000000E+00  0.00000000E+00  0.00000000E+00  0.00000000E+00
  3.25435698E-01  0.00000000E+00  0.00000000E+00  0.00000000E+00  7.68032914E-02
  0.00000000E+00  0.00000000E+00  0.00000000E+00  8.28824954E-01  0.00000000E+00
  0.00000000E+00  0.00000000E+00  0.00000000E+00  0.00000000E+00  0.00000000E+00
  0.00000000E+00  0.00000000E+00  0.00000000E+00  0.00000000E+00  0.00000000E+00
  0.00000000E+00  3.25435698E-01  0.00000000E+00  0.00000000E+00  0.00000000E+00
  7.68032914E-02  0.00000000E+00  0.00000000E+00  0.00000000E+00  8.28824954E-01
  0.00000000E+00  0.00000000E+00  0.00000000E+00  0.00000000E+00  0.00000000E+00
  0.00000000E+00  0.00000000E+00  0.00000000E+00  0.00000000E+00  3.25435698E-01
  0.00000000E+00  0.00000000E+00  0.00000000E+00  7.68032914E-02  0.00000000E+00
  0.00000000E+00  0.00000000E+00  8.28824954E-01  0.00000000E+00  0.00000000E+00
  0.00000000E+00  0.00000000E+00  0.00000000E+00  0.00000000E+00  0.00000000E+00
  1.25096076E-01 -4.97433917E-02  0.00000000E+00  0.00000000E+00  0.00000000E+00
 -1.09201924E+00  0.00000000E+00  0.00000000E+00  0.00000000E+00  1.43075178E+00
  0.00000000E+00  0.00000000E+00  0.00000000E+00  1.95788105E-02  1.95788105E-02
  1.95788105E-02  0.00000000E+00  0.00000000E+00  0.00000000E+00  0.00000000E+00
  0.00000000E+00  0.00000000E+00  0.00000000E+00 -4.70836210E-01  0.00000000E+00
  0.00000000E+00  0.00000000E+00 -6.95008857E-01  0.00000000E+00  0.00000000E+00
  0.00000000E+00  8.25652379E-01  0.00000000E+00  0.00000000E+00  0.00000000E+00
  0.00000000E+00  0.00000000E+00  0.00000000E+00  0.00000000E+00  0.00000000E+00
  0.00000000E+00 -4.70836210E-01  0.00000000E+00  0.00000000E+00  0.00000000E+00
 -6.95008857E-01  0.00000000E+00  0.00000000E+00  0.00000000E+00  8.25652379E-01
  0.00000000E+00  0.00000000E+00  0.00000000E+00  0.00000000E+00  0.00000000E+00
  0.00000000E+00  0.00000000E+00  0.00000000E+00  0.00000000E+00 -4.70836210E-01
  0.00000000E+00  0.00000000E+00  0.00000000E+00 -6.95008857E-01  0.00000000E+00
  0.00000000E+00  0.00000000E+00  8.25652379E-01  0.00000000E+00  0.00000000E+00
  0.00000000E+00  0.00000000E+00  0.00000000E+00  0.00000000E+00  0.00000000E+00
  0.00000000E+00  0.00000000E+00  0.00000000E+00  0.00000000E+00 -1.19978444E+00
  0.00000000E+00  0.00000000E+00  0.00000000E+00  1.42917540E+00  0.00000000E+00
  0.00000000E+00  0.00000000E+00 -4.80125927E-01  0.00000000E+00  0.00000000E+00
  0.00000000E+00  0.00000000E+00  0.00000000E+00  0.00000000E+00  0.00000000E+00
  0.00000000E+00  0.00000000E+00 -1.19978444E+00  0.00000000E+00  0.00000000E+00
  0.00000000E+00  1.42917540E+00  0.00000000E+00  0.00000000E+00  0.00000000E+00
 -4.80125927E-01  0.00000000E+00  0.00000000E+00  0.00000000E+00  0.00000000E+00
  0.00000000E+00  0.00000000E+00  0.00000000E+00  0.00000000E+00  0.00000000E+00
  0.00000000E+00  0.00000000E+00  0.00000000E+00 -1.19978444E+00  0.00000000E+00
  0.00000000E+00  0.00000000E+00  1.42917540E+00  0.00000000E+00  0.00000000E+00
  0.00000000E+00 -4.80125927E-01  0.00000000E+00  0.00000000E+00  0.00000000E+00
  0.00000000E+00  0.00000000E+00  0.00000000E+00  2.44351107E-02 -1.98151925E+00
  0.00000000E+00  0.00000000E+00  0.00000000E+00  2.56067889E+00  0.00000000E+00
  0.00000000E+00  0.00000000E+00 -7.85688897E-01  0.00000000E+00  0.00000000E+00
  0.00000000E+00 -7.57284097E-02 -7.57284097E-02 -7.57284097E-02  0.00000000E+00
  0.00000000E+00  0.00000000E+00  0.00000000E+00  0.00000000E+00  0.00000000E+00
  0.00000000E+00  0.00000000E+00  0.00000000E+00  0.00000000E+00  0.00000000E+00
  0.00000000E+00  0.00000000E+00  0.00000000E+00  0.00000000E+00  0.00000000E+00
  0.00000000E+00  0.00000000E+00  0.00000000E+00  1.00000000E+00  0.00000000E+00
  0.00000000E+00  0.00000000E+00  0.00000000E+00  0.00000000E+00  0.00000000E+00
  0.00000000E+00  0.00000000E+00  0.00000000E+00  0.00000000E+00  0.00000000E+00
  0.00000000E+00  0.00000000E+00  0.00000000E+00  0.00000000E+00  0.00000000E+00
  0.00000000E+00  0.00000000E+00  0.00000000E+00  1.00000000E+00  0.00000000E+00
  0.00000000E+00  0.00000000E+00  0.00000000E+00  0.00000000E+00  0.00000000E+00
  0.00000000E+00  0.00000000E+00  0.00000000E+00  0.00000000E+00  0.00000000E+00
  0.00000000E+00  0.00000000E+00  0.00000000E+00  0.00000000E+00  0.00000000E+00
  0.00000000E+00  0.00000000E+00  0.00000000E+00  1.00000000E+00 -4.33720741E-17
 -8.96697194E-16  0.00000000E+00  0.00000000E+00  0.00000000E+00  2.97791071E-15
  0.00000000E+00  0.00000000E+00  0.00000000E+00 -5.33085406E-16  0.00000000E+00
  0.00000000E+00  0.00000000E+00 -2.32100039E-01 -7.26325893E-01  9.58425933E-01
  0.00000000E+00  0.00000000E+00  0.00000000E+00  1.13697370E-16 -3.11538012E-15
  0.00000000E+00  0.00000000E+00  0.00000000E+00 -9.88386973E-16  0.00000000E+00
  0.00000000E+00  0.00000000E+00  8.17964820E-16  0.00000000E+00  0.00000000E+00
  0.00000000E+00  9.72691920E-01 -6.87350490E-01 -2.85341430E-01  0.00000000E+00
  0.00000000E+00  0.00000000E+00 -4.74359199E-01  4.16118421E+00  0.00000000E+00
  0.00000000E+00  0.00000000E+00  6.05536343E-01  0.00000000E+00  0.00000000E+00
  0.00000000E+00 -2.01844435E-01  0.00000000E+00  0.00000000E+00  0.00000000E+00
 -2.06360697E+00 -2.06360697E+00 -2.06360697E+00  0.00000000E+00  0.00000000E+00
  0.00000000E+00
Orthonormal basis                          R   N=         361
  6.07312040E-02  2.52111690E-01  0.00000000E+00  0.00000000E+00  0.00000000E+00
  2.50779529E-01  0.00000000E+00  0.00000000E+00  0.00000000E+00  1.67411191E-01
  0.00000000E+00  0.00000000E+00  0.00000000E+00  1.87610854E-01  1.87610854E-01
  1.87610854E-01  0.00000000E+00  0.00000000E+00  0.00000000E+00  9.96289907E-01
  2.89352924E-02  0.00000000E+00  0.00000000E+00  0.00000000E+00 -3.50646004E-02
  0.00000000E+00  0.00000000E+00  0.00000000E+00 -1.54019262E-01  0.00000000E+00
  0.00000000E+00  0.00000000E+00 -5.90278200E-02 -5.90278200E-02 -5.90278200E-02
  0.00000000E+00  0.00000000E+00  0.00000000E+00  1.19240407E-01 -3.18056307E-01
  0.00000000E+00  0.00000000E+00  0.00000000E+00  2.28215546E-01  0.00000000E+00
  0.00000000E+00  0.00000000E+00  9.53647131E-01  0.00000000E+00  0.00000000E+00
  0.00000000E+00 -2.55740160E-01 -2.55740160E-01 -2.55740160E-01  0.00000000E+00
  0.00000000E+00  0.00000000E+00 -8.26541259E-18  9.96434449E-17  0.00000000E+00
  0.00000000E+00  0.00000000E+00 -1.95282793E-16  0.00000000E+00  0.00000000E+00
  0.00000000E+00 -4.76471061E-16  0.00000000E+00  0.00000000E+00  0.00000000E+00
 -8.33609523E-01 -6.15480087E-02  8.95157531E-01  0.00000000E+00  0.00000000E+00
  0.00000000E+00  7.47312445E-18 -5.22431812E-17  0.00000000E+00  0.00000000E+00
  0.00000000E+00  4.86730027E-17  0.00000000E+00  0.00000000E+00  0.00000000E+00
  4.65560891E-17  0.00000000E+00  0.00000000E+00  0.00000000E+00 -5.52354201E-01
  9.98104124E-01 -4.45749923E-01  0.00000000E+00  0.00000000E+00  0.00000000E+00
 -1.84519472E-01 -6.86302945E-01  0.00000000E+00  0.00000000E+00  0.00000000E+00
  2.87267869E+00  0.00000000E+00  0.00000000E+00  0.00000000E+00 -1.33921742E+00
  0.00000000E+00  0.00000000E+00  0.00000000E+00 -5.54299740E-01 -5.54299740E-01
 -5.54299740E-01  0.00000000E+00  0.00000000E+00  0.00000000E+00 -4.81027622E-01
  4.55668975E+00  0.00000000E+00  0.00000000E+00  0.00000000E+00 -7.04434161E-02
  0.00000000E+00  0.00000000E+00  0.00000000E+00  1.74735284E-02  0.00000000E+00
  0.00000000E+00  0.00000000E+00 -1.96300098E+00 -1.96300098E+00 -1.96300098E+00
  0.00000000E+00  0.00000000E+00  0.00000000E+00  0.00000000E+00  0.00000000E+00
  0.00000000E+00  0.00000000E+00  0.00000000E+00  0.00000000E+00  0.00000000E+00
  0.00000000E+00  0.00000000E+00  0.00000000E+00  0.00000000E+00  0.00000000E+00
  0.00000000E+00  0.00000000E+00  0.00000000E+00  0.00000000E+00  1.00000000E+00
  0.00000000E+00  0.00000000E+00  0.00000000E+00  0.00000000E+00  0.00000000E+00
  0.00000000E+00  0.00000000E+00  0.00000000E+00  0.00000000E+00  0.00000000E+00
  0.00000000E+00  0.00000000E+00  0.00000000E+00  0.00000000E+00  0.00000000E+00
  0.00000000E+00  0.00000000E+00  0.00000000E+00  0.00000000E+00  1.00000000E+00
  0.00000000E+00  0.00000000E+00  0.00000000E+00  0.00000000E+00  0.00000000E+00
  0.00000000E+00  0.00000000E+00  0.00000000E+00  0.00000000E+00  0.00000000E+00
  0.00000000E+00  0.00000000E+00  0.00000000E+00  0.00000000E+00  0.00000000E+00
  0.00000000E+00  0.00000000E+00  0.00000000E+00  0.00000000E+00  1.00000000E+00
  0.00000000E+00  0.00000000E+00  0.00000000E+00  0.00000000E+00  3.88923426E-01
  0.00000000E+00  0.00000000E+00  0.00000000E+00  4.79994428E-01  0.00000000E+00
  0.00000000E+00  0.00000000E+00  3.65895389E-01  0.00000000E+00  0.00000000E+00
  0.00000000E+00  0.00000000E+00  0.00000000E+00  0.00000000E+00  0.00000000E+00
  0.00000000E+00  0.00000000E+00  0.00000000E+00 -7.41076485E-01  0.00000000E+00
  0.00000000E+00  0.00000000E+00 -2.33564121E-02  0.00000000E+00  0.00000000E+00
  0.00000000E+00  8.18356725E-01  0.00000000E+00  0.00000000E+00  0.00000000E+00
  0.00000000E+00  0.00000000E+00  0.00000000E+00  0.00000000E+00  0.00000000E+00
  0.00000000E+00  0.00000000E+00 -1.03277396E+00  0.00000000E+00  0.00000000E+00
  0.00000000E+00  1.51675252E+00  0.00000000E+00  0.00000000E+00  0.00000000E+00
 -8.91956499E-01  0.00000000E+00  0.00000000E+00  0.00000000E+00  0.00000000E+00
  0.00000000E+00  0.00000000E+00  0.00000000E+00  0.00000000E+00  0.00000000E+00
  3.88923426E-01  0.00000000E+00  0.00000000E+00  0.00000000E+00  4.79994428E-01
  0.00000000E+00  0.00000000E+00  0.00000000E+00  3.65895389E-01  0.00000000E+00
  0.00000000E+00  0.00000000E+00  0.00000000E+00  0.00000000E+00  0.00000000E+00
  0.00000000E+00  0.00000000E+00  0.00000000E+00  0.00000000E+00 -7.41076485E-01
  0.00000000E+00  0.00000000E+00  0.00000000E+00 -2.33564121E-02  0.00000000E+00
  0.00000000E+00  0.00000000E+00  8.18356725E-01  0.00000000E+00  0.00000000E+00
  0.00000000E+00  0.00000000E+00  0.00000000E+00  0.00000000E+00  0.00000000E+00
  0.00000000E+00  0.00000000E+00  0.00000000E+00 -1.03277396E+00  0.00000000E+00
  0.00000000E+00  0.00000000E+00  1.51675252E+00  0.00000000E+00  0.00000000E+00
  0.00000000E+00 -8.91956499E-01  0.00000000E+00  0.00000000E+00  0.00000000E+00
  0.00000000E+00  0.00000000E+00  0.00000000E+00  0.00000000E+00  0.00000000E+00
  0.00000000E+00  3.88923426E-01  0.00000000E+00  0.00000000E+00  0.00000000E+00
  4.79994428E-01  0.00000000E+00  0.00000000E+00  0.00000000E+00  3.65895389E-01
  0.00000000E+00  0.00000000E+00  0.00000000E+00  0.00000000E+00  0.00000000E+00
  0.00000000E+00  0.00000000E+00  0.00000000E+00  0.00000000E+00  0.00000000E+00
 -7.41076485E-01  0.00000000E+00  0.00000000E+00  0.00000000E+00 -2.33564121E-02
  0.00000000E+00  0.00000000E+00  0.00000000E+00  8.18356725E-01  0.00000000E+00
  0.00000000E+00  0.00000000E+00  0.00000000E+00  0.00000000E+00  0.00000000E+00
  0.00000000E+00  0.00000000E+00  0.00000000E+00  0.00000000E+00 -1.03277396E+00
  0.00000000E+00  0.00000000E+00  0.00000000E+00  1.51675252E+00  0.00000000E+00
  0.00000000E+00  0.00000000E+00 -8.91956499E-01  0.00000000E+00  0.00000000E+00
  0.00000000E+00  0.00000000E+00  0.00000000E+00  0.00000000E+00  0.00000000E+00
  0.00000000E+00
Total SCF Density                          R   N=         190
  2.07010127E+00 -5.93690922E-02  3.13447464E-01  0.00000000E+00  0.00000000E+00
  1.45972695E-01  0.00000000E+00  0.00000000E+00  7.98685801E-19  1.45972695E-01
  0.00000000E+00  0.00000000E+00 -4.05631955E-21  1.43907113E-19  1.45972695E-01
 -2.61969503E-01  4.03730107E-01  0.00000000E+00  0.00000000E+00  0.00000000E+00
  5.36916159E-01  0.00000000E+00  0.00000000E+00  5.59976411E-02  3.06389635E-19
 -1.55607407E-21  0.00000000E+00  2.14816600E-02  0.00000000E+00  0.00000000E+00
  3.06389635E-19  5.59976411E-02  5.52052480E-20  0.00000000E+00  1.17536343E-19
  2.14816600E-02  0.00000000E+00  0.00000000E+00 -1.55607407E-21  5.52052480E-20
  5.59976411E-02  0.00000000E+00 -5.96936826E-22  2.11776844E-20  2.14816600E-02
 -8.40894547E-02  1.58778779E-01  0.00000000E+00  0.00000000E+00  0.00000000E+00
  2.08981046E-01  0.00000000E+00  0.00000000E+00  0.00000000E+00  8.27849148E-02
  0.00000000E+00  0.00000000E+00  2.80423077E-01  1.53432756E-18 -7.79245467E-21
  0.00000000E+00  1.07575124E-01  5.88594491E-19 -2.98931988E-21  0.00000000E+00
  5.38711038E-01  0.00000000E+00  0.00000000E+00  1.53432756E-18  2.80423077E-01
  2.76454958E-19  0.00000000E+00  5.88594491E-19  1.07575124E-01  1.06052885E-19
  0.00000000E+00  2.94754342E-18  5.38711038E-01  0.00000000E+00  0.00000000E+00
 -7.79245467E-21  2.76454958E-19  2.80423077E-01  0.00000000E+00 -2.98931988E-21
  1.06052885E-19  1.07575124E-01  0.00000000E+00 -1.49698141E-20  5.31088023E-19
  5.38711038E-01 -2.37008656E-02  2.47105334E-03  0.00000000E+00  0.00000000E+00
  0.00000000E+00  5.31428830E-03  0.00000000E+00  0.00000000E+00  0.00000000E+00
  1.78002210E-03  0.00000000E+00  0.00000000E+00  0.00000000E+00  2.89522368E-04
 -2.37008656E-02  2.47105334E-03  0.00000000E+00  0.00000000E+00  0.00000000E+00
  5.31428830E-03  0.00000000E+00  0.00000000E+00  0.00000000E+00  1.78002210E-03
  0.00000000E+00  0.00000000E+00  0.00000000E+00  2.89522368E-04  2.89522368E-04
 -2.37008656E-02  2.47105334E-03  0.00000000E+00  0.00000000E+00  0.00000000E+00
  5.31428830E-03  0.00000000E+00  0.00000000E+00  0.00000000E+00  1.78002210E-03
  0.00000000E+00  0.00000000E+00  0.00000000E+00  2.89522368E-04  2.89522368E-04
  2.89522368E-04 -1.49740029E-19  1.56119023E-20  0.00000000E+00  0.00000000E+00
  0.00000000E+00  3.35752161E-20  0.00000000E+00  0.00000000E+00  0.00000000E+00
  1.12460264E-20  0.00000000E+00  0.00000000E+00  0.00000000E+00  1.82917740E-21
  1.82917740E-21  1.82917740E-21  5.95053874E-36  7.60491054E-22 -7.92888323E-23