fubar
SP        UPBEPBE                                                     6-31+G(d,p)
Number of atoms                            I                1
Info1-9                                    I   N=           9
          11          10           0           0           0         110
           1          18         902
Full Title                                 C   N=           1
fubar
Route                                      C   N=           3
#PBEPBE/6-31+g** scf=tight
Charge                                     I                1
Multiplicity                               I                4
Number of electrons                        I                7
Number of alpha electrons                  I                5
Number of beta electrons                   I                2
Number of basis functions                  I               19
Number of independent functions            I               19
Number of point charges in /Mol/           I                0
Number of translation vectors              I                0
Atomic numbers                             I   N=           1
           8
Nuclear charges                            R   N=           1
  8.00000000E+00
Current cartesian coordinates              R   N=           3
  0.00000000E+00  0.00000000E+00  0.00000000E+00
Number of symbols in /Mol/                 I                0
Int Atom Types                             I   N=           1
           0
Force Field                                I                0
Atom Types                                 C   N=           1

MM charges                                 R   N=           1
  0.00000000E+00
Integer atomic weights                     I   N=           1
          16
Real atomic weights                        R   N=           1
  1.59949146E+01
Atom fragment info                         I   N=           1
           0
Atom residue num                           I   N=           1
           0
Nuclear spins                              I   N=           1
           0
Nuclear ZEff                               R   N=           1
 -5.60000000E+00
Nuclear ZNuc                               R   N=           1
  8.00000000E+00
Nuclear QMom                               R   N=           1
  0.00000000E+00
Nuclear GFac                               R   N=           1
  0.00000000E+00
MicOpt                                     I   N=           1
          -1
Number of residues                         I                0
Number of secondary structures             I                0
SymInf integers                            I   N=          26
           1           8           1           1           1           1
          -1          -1          -1           1          -1          -1
          -1           1          -1          -1          -1          -1
           1           1           1          -1           1           1
           1          -1
RotTr to input orientation                 R   N=          12
  0.00000000E+00  0.00000000E+00 -1.00000000E+00  0.00000000E+00  1.00000000E+00
  0.00000000E+00  1.00000000E+00  0.00000000E+00  0.00000000E+00  0.00000000E+00
  0.00000000E+00  0.00000000E+00
Number of contracted shells                I                5
Number of primitive shells                 I               12
Pure/Cartesian d shells                    I                1
Pure/Cartesian f shells                    I                0
Highest angular momentum                   I                2
Largest degree of contraction              I                6
Shell types                                I   N=           5
           0          -1          -1          -1           2
Number of primitives per shell             I   N=           5
           6           3           1           1           1
Shell to atom map                          I   N=           5
           1           1           1           1           1
Primitive exponents                        R   N=          12
  5.48467166E+03  8.25234946E+02  1.88046958E+02  5.29645000E+01  1.68975704E+01
  5.79963534E+00  1.55396162E+01  3.59993359E+00  1.01376175E+00  2.70005823E-01
  8.45000000E-02  8.00000000E-01
Contraction coefficients                   R   N=          12
  1.83107443E-03  1.39501722E-02  6.84450781E-02  2.32714336E-01  4.70192898E-01
  3.58520853E-01 -1.10777550E-01 -1.48026263E-01  1.13076702E+00  1.00000000E+00
  1.00000000E+00  1.00000000E+00
P(S=P) Contraction coefficients            R   N=          12
  0.00000000E+00  0.00000000E+00  0.00000000E+00  0.00000000E+00  0.00000000E+00
  0.00000000E+00  7.08742682E-02  3.39752839E-01  7.27158577E-01  1.00000000E+00
  1.00000000E+00  0.00000000E+00
Coordinates of each shell                  R   N=          15
  0.00000000E+00  0.00000000E+00  0.00000000E+00  0.00000000E+00  0.00000000E+00
  0.00000000E+00  0.00000000E+00  0.00000000E+00  0.00000000E+00  0.00000000E+00
  0.00000000E+00  0.00000000E+00  0.00000000E+00  0.00000000E+00  0.00000000E+00
Num ILSW                                   I              100
ILSW                                       I   N=         100
           1           1           0           0           2           0
           0           0           0           0        1009          -1
           5           0           0           0           0           0
           0           0           0           0           0           0
           1           0           0           0           0           0
           0           0      100000           0          -1           0
           0           0           0           0           0           0
           0           0           0           1           0           0
           0 -2000000000           1           0           0           0
           0           0           4          52           0           0
           0           0           0           0           0           0
           0           0           0           1           0           1
           0           0           0           0           0           0
           0           0           0           0           0           0
           0           0           0           0           0           0
           0           0           0           0           0           0
           0           0           0           0
Num RLSW                                   I               52
RLSW                                       R   N=          52
  1.00000000E+00  1.00000000E+00  1.00000000E+00  1.00000000E+00  0.00000000E+00
  0.00000000E+00  0.00000000E+00  1.00000000E+00  0.00000000E+00  0.00000000E+00
  0.00000000E+00  0.00000000E+00  1.00000000E+00  0.00000000E+00  0.00000000E+00
  0.00000000E+00  0.00000000E+00  1.00000000E+00  0.00000000E+00  0.00000000E+00
  0.00000000E+00  0.00000000E+00  1.00000000E+00  0.00000000E+00  0.00000000E+00
  0.00000000E+00  0.00000000E+00  1.00000000E+00  0.00000000E+00  0.00000000E+00
  0.00000000E+00  0.00000000E+00  1.00000000E+00  0.00000000E+00  0.00000000E+00
  0.00000000E+00  0.00000000E+00  0.00000000E+00  1.00000000E+00  1.00000000E+00
  0.00000000E+00  1.00000000E+00  0.00000000E+00  0.00000000E+00  0.00000000E+00
  0.00000000E+00  0.00000000E+00  0.00000000E+00  0.00000000E+00  0.00000000E+00
  0.00000000E+00  0.00000000E+00
MxBond                                     I                1
NBond                                      I   N=           1
           0
IBond                                      I   N=           1
           0
RBond                                      R   N=           1
  0.00000000E+00
Virial Ratio                               R      2.008837917504909E+00
SCF Energy                                 R     -7.446524962999567E+01
Total Energy                               R     -7.446524962999567E+01
S**2                                       R      3.751697870099682E+00
S**2 after annihilation                    R      3.750000004602346E+00
RMS Density                                R      6.649078453825332E-10
Job Status                                 I                1
Nuclear derivative order                   I                0
External E-field                           R   N=          35
  0.00000000E+00  0.00000000E+00  0.00000000E+00  0.00000000E+00  0.00000000E+00
  0.00000000E+00  0.00000000E+00  0.00000000E+00  0.00000000E+00  0.00000000E+00
  0.00000000E+00  0.00000000E+00  0.00000000E+00  0.00000000E+00  0.00000000E+00
  0.00000000E+00  0.00000000E+00  0.00000000E+00  0.00000000E+00  0.00000000E+00
  0.00000000E+00  0.00000000E+00  0.00000000E+00  0.00000000E+00  0.00000000E+00
  0.00000000E+00  0.00000000E+00  0.00000000E+00  0.00000000E+00  0.00000000E+00
  0.00000000E+00  0.00000000E+00  0.00000000E+00  0.00000000E+00  0.00000000E+00
IOpCl                                      I                1
IROHF                                      I                0
Alpha Orbital Energies                     R   N=          19
 -1.96209975E+01 -1.52918693E+00 -9.70828407E-01 -9.70828407E-01 -9.70828407E-01
 -2.22779348E-01 -1.29112622E-01 -1.29112622E-01 -1.29112622E-01  5.57188210E-01
  5.57188210E-01  5.57188210E-01  6.89645399E-01  1.08333327E+00  1.08333327E+00
  1.08333327E+00  1.08333327E+00  1.08333327E+00  2.94436882E+00
Beta Orbital Energies                      R   N=          19
 -1.95431492E+01 -1.31366624E+00 -7.58954896E-01 -7.58954896E-01 -7.58954896E-01
 -1.74128594E-01 -8.48379565E-02 -8.48379565E-02 -8.48379565E-02  6.64060037E-01
  6.64060037E-01  6.64060037E-01  7.81080492E-01  1.24479965E+00  1.24479965E+00
  1.24479965E+00  1.24479965E+00  1.24479965E+00  3.09808988E+00
Alpha MO coefficients                      R   N=         361
  9.91990488E-01  2.78235202E-02  0.00000000E+00  0.00000000E+00  0.00000000E+00
  1.45318115E-02  0.00000000E+00  0.00000000E+00  0.00000000E+00 -2.77790428E-03
  0.00000000E+00  0.00000000E+00  0.00000000E+00 -9.64625309E-03 -9.64625309E-03
 -9.64625309E-03  0.00000000E+00  0.00000000E+00  0.00000000E+00 -2.43299180E-01
  6.37578626E-01  0.00000000E+00  0.00000000E+00  0.00000000E+00  4.67532431E-01
  0.00000000E+00  0.00000000E+00  0.00000000E+00 -3.62297108E-02  0.00000000E+00
  0.00000000E+00  0.00000000E+00  3.56766996E-03  3.56766996E-03  3.56766996E-03
  0.00000000E+00  0.00000000E+00  0.00000000E+00  0.00000000E+00  0.00000000E+00
  7.91359246E-01  0.00000000E+00  0.00000000E+00  0.00000000E+00  3.35352485E-01
  0.00000000E+00  0.00000000E+00  0.00000000E+00 -6.91733205E-03  0.00000000E+00
  0.00000000E+00  0.00000000E+00  0.00000000E+00  0.00000000E+00  0.00000000E+00
  0.00000000E+00  0.00000000E+00  0.00000000E+00  0.00000000E+00  0.00000000E+00
  7.91359246E-01  0.00000000E+00  0.00000000E+00  0.00000000E+00  3.35352485E-01
  0.00000000E+00  0.00000000E+00  0.00000000E+00 -6.91733205E-03  0.00000000E+00
  0.00000000E+00  0.00000000E+00  0.00000000E+00  0.00000000E+00  0.00000000E+00
  0.00000000E+00  0.00000000E+00  0.00000000E+00  0.00000000E+00  0.00000000E+00
  7.91359246E-01  0.00000000E+00  0.00000000E+00  0.00000000E+00  3.35352485E-01
  0.00000000E+00  0.00000000E+00  0.00000000E+00 -6.91733205E-03  0.00000000E+00
  0.00000000E+00  0.00000000E+00  0.00000000E+00  0.00000000E+00  0.00000000E+00
  7.95082849E-02 -2.62360303E-01  0.00000000E+00  0.00000000E+00  0.00000000E+00
 -7.14124284E-01  0.00000000E+00  0.00000000E+00  0.00000000E+00  1.43072758E+00
  0.00000000E+00  0.00000000E+00  0.00000000E+00  2.67403280E-02  2.67403280E-02
  2.67403280E-02  0.00000000E+00  0.00000000E+00  0.00000000E+00  0.00000000E+00
  0.00000000E+00  0.00000000E+00 -2.90888421E-01  0.00000000E+00  0.00000000E+00
  0.00000000E+00 -1.35940988E-01  0.00000000E+00  0.00000000E+00  0.00000000E+00
  1.07641386E+00  0.00000000E+00  0.00000000E+00  0.00000000E+00  0.00000000E+00
  0.00000000E+00  0.00000000E+00  0.00000000E+00  0.00000000E+00  0.00000000E+00
 -2.90888421E-01  0.00000000E+00  0.00000000E+00  0.00000000E+00 -1.35940988E-01
  0.00000000E+00  0.00000000E+00  0.00000000E+00  1.07641386E+00  0.00000000E+00
  0.00000000E+00  0.00000000E+00  0.00000000E+00  0.00000000E+00  0.00000000E+00
  0.00000000E+00  0.00000000E+00  0.00000000E+00  0.00000000E+00  0.00000000E+00
  0.00000000E+00 -2.90888421E-01  0.00000000E+00  0.00000000E+00  0.00000000E+00
 -1.35940988E-01  0.00000000E+00  0.00000000E+00  0.00000000E+00  1.07641386E+00
  0.00000000E+00  0.00000000E+00  0.00000000E+00  0.00000000E+00  0.00000000E+00
  0.00000000E+00  0.00000000E+00  0.00000000E+00  0.00000000E+00 -8.50634366E-01
  0.00000000E+00  0.00000000E+00  0.00000000E+00  1.54938587E+00  0.00000000E+00
  0.00000000E+00  0.00000000E+00 -8.89468152E-01  0.00000000E+00  0.00000000E+00
  0.00000000E+00  0.00000000E+00  0.00000000E+00  0.00000000E+00  0.00000000E+00
  0.00000000E+00  0.00000000E+00 -8.50634366E-01  0.00000000E+00  0.00000000E+00
  0.00000000E+00  1.54938587E+00  0.00000000E+00  0.00000000E+00  0.00000000E+00
 -8.89468152E-01  0.00000000E+00  0.00000000E+00  0.00000000E+00  0.00000000E+00
  0.00000000E+00  0.00000000E+00  0.00000000E+00  0.00000000E+00  0.00000000E+00
  0.00000000E+00  0.00000000E+00  0.00000000E+00 -8.50634366E-01  0.00000000E+00
  0.00000000E+00  0.00000000E+00  1.54938587E+00  0.00000000E+00  0.00000000E+00
  0.00000000E+00 -8.89468152E-01  0.00000000E+00  0.00000000E+00  0.00000000E+00
  0.00000000E+00  0.00000000E+00  0.00000000E+00 -4.72752708E-02 -1.66793553E+00
  0.00000000E+00  0.00000000E+00  0.00000000E+00  3.51814102E+00  0.00000000E+00
  0.00000000E+00  0.00000000E+00 -1.44354483E+00  0.00000000E+00  0.00000000E+00
  0.00000000E+00 -3.83420677E-01 -3.83420677E-01 -3.83420677E-01  0.00000000E+00
  0.00000000E+00  0.00000000E+00  0.00000000E+00  0.00000000E+00  0.00000000E+00
  0.00000000E+00  0.00000000E+00  0.00000000E+00  0.00000000E+00  0.00000000E+00
  0.00000000E+00  0.00000000E+00  0.00000000E+00  0.00000000E+00  0.00000000E+00
  0.00000000E+00  0.00000000E+00  0.00000000E+00  0.00000000E+00  1.00000000E+00
  0.00000000E+00  0.00000000E+00  0.00000000E+00  0.00000000E+00  0.00000000E+00
  0.00000000E+00  0.00000000E+00  0.00000000E+00  0.00000000E+00  0.00000000E+00
  0.00000000E+00  0.00000000E+00  0.00000000E+00  0.00000000E+00  0.00000000E+00
  0.00000000E+00  0.00000000E+00  0.00000000E+00  0.00000000E+00  1.00000000E+00
  0.00000000E+00  0.00000000E+00  0.00000000E+00  0.00000000E+00  0.00000000E+00
  0.00000000E+00  0.00000000E+00  0.00000000E+00  0.00000000E+00  0.00000000E+00
  0.00000000E+00  0.00000000E+00  0.00000000E+00  0.00000000E+00  0.00000000E+00
  0.00000000E+00  1.00000000E+00  0.00000000E+00  0.00000000E+00 -2.32460235E-16
 -1.61830818E-14  0.00000000E+00  0.00000000E+00  0.00000000E+00  3.17271563E-14
  0.00000000E+00  0.00000000E+00  0.00000000E+00 -1.39317220E-14  0.00000000E+00
  0.00000000E+00  0.00000000E+00  9.73145863E-01 -6.85922743E-01 -2.87223120E-01
  0.00000000E+00  0.00000000E+00  0.00000000E+00 -1.59807704E-15  4.35228311E-14
  0.00000000E+00  0.00000000E+00  0.00000000E+00 -6.82527870E-14  0.00000000E+00
  0.00000000E+00  0.00000000E+00  3.76472071E-14  0.00000000E+00  0.00000000E+00
  0.00000000E+00 -2.30189335E-01 -7.27674371E-01  9.57863706E-01  0.00000000E+00
  0.00000000E+00  0.00000000E+00 -4.81078366E-01  8.29934528E-02  0.00000000E+00
  0.00000000E+00  0.00000000E+00  4.09305587E+00  0.00000000E+00  0.00000000E+00
  0.00000000E+00 -9.33612063E-01  0.00000000E+00  0.00000000E+00  0.00000000E+00
 -1.62424266E+00 -1.62424266E+00 -1.62424266E+00  0.00000000E+00  0.00000000E+00
  0.00000000E+00
Beta MO coefficients                       R   N=         361
  9.93242082E-01  2.49310403E-02  0.00000000E+00  0.00000000E+00  0.00000000E+00
  9.46103141E-03  0.00000000E+00  0.00000000E+00  0.00000000E+00 -1.58441470E-03
  0.00000000E+00  0.00000000E+00  0.00000000E+00 -7.26242723E-03 -7.26242723E-03
 -7.26242723E-03  0.00000000E+00  0.00000000E+00  0.00000000E+00 -2.37589079E-01
  5.84750340E-01  0.00000000E+00  0.00000000E+00  0.00000000E+00  5.15968803E-01
  0.00000000E+00  0.00000000E+00  0.00000000E+00 -2.44076572E-02  0.00000000E+00
  0.00000000E+00  0.00000000E+00  2.66568986E-03  2.66568986E-03  2.66568986E-03
  0.00000000E+00  0.00000000E+00  0.00000000E+00  0.00000000E+00  0.00000000E+00
  0.00000000E+00  0.00000000E+00  7.36554819E-01  0.00000000E+00  0.00000000E+00
  0.00000000E+00  3.92415515E-01  0.00000000E+00  0.00000000E+00  0.00000000E+00
  1.71744003E-02  0.00000000E+00  0.00000000E+00  0.00000000E+00  0.00000000E+00
  0.00000000E+00  0.00000000E+00  0.00000000E+00  0.00000000E+00  7.36554819E-01
  0.00000000E+00  0.00000000E+00  0.00000000E+00  3.92415515E-01  0.00000000E+00
  0.00000000E+00  0.00000000E+00  1.71744003E-02  0.00000000E+00  0.00000000E+00
  0.00000000E+00  0.00000000E+00  0.00000000E+00  0.00000000E+00  0.00000000E+00
  0.00000000E+00  0.00000000E+00  0.00000000E+00  0.00000000E+00  7.36554819E-01
  0.00000000E+00  0.00000000E+00  0.00000000E+00  3.92415515E-01  0.00000000E+00
  0.00000000E+00  0.00000000E+00  1.71744003E-02  0.00000000E+00  0.00000000E+00
  0.00000000E+00  0.00000000E+00  0.00000000E+00  0.00000000E+00  0.00000000E+00
  8.50496408E-02 -2.23540074E-01  0.00000000E+00  0.00000000E+00  0.00000000E+00
 -8.24754908E-01  0.00000000E+00  0.00000000E+00  0.00000000E+00  1.47454048E+00
  0.00000000E+00  0.00000000E+00  0.00000000E+00  3.02957557E-02  3.02957557E-02
  3.02957557E-02  0.00000000E+00  0.00000000E+00  0.00000000E+00  0.00000000E+00
  0.00000000E+00 -2.90813712E-01  0.00000000E+00  0.00000000E+00  0.00000000E+00
 -2.32381159E-01  0.00000000E+00  0.00000000E+00  0.00000000E+00  1.11872035E+00
  0.00000000E+00  0.00000000E+00  0.00000000E+00  0.00000000E+00  0.00000000E+00
  0.00000000E+00  0.00000000E+00  0.00000000E+00  0.00000000E+00  0.00000000E+00
  0.00000000E+00 -2.90813712E-01  0.00000000E+00  0.00000000E+00  0.00000000E+00
 -2.32381159E-01  0.00000000E+00  0.00000000E+00  0.00000000E+00  1.11872035E+00
  0.00000000E+00  0.00000000E+00  0.00000000E+00  0.00000000E+00  0.00000000E+00
  0.00000000E+00  0.00000000E+00  0.00000000E+00  0.00000000E+00  0.00000000E+00
  0.00000000E+00 -2.90813712E-01  0.00000000E+00  0.00000000E+00  0.00000000E+00
 -2.32381159E-01  0.00000000E+00  0.00000000E+00  0.00000000E+00  1.11872035E+00
  0.00000000E+00  0.00000000E+00  0.00000000E+00  0.00000000E+00  0.00000000E+00
  0.00000000E+00  0.00000000E+00  0.00000000E+00  0.00000000E+00 -8.98531434E-01
  0.00000000E+00  0.00000000E+00  0.00000000E+00  1.52431849E+00  0.00000000E+00
  0.00000000E+00  0.00000000E+00 -8.35486723E-01  0.00000000E+00  0.00000000E+00
  0.00000000E+00  0.00000000E+00  0.00000000E+00  0.00000000E+00  0.00000000E+00
  0.00000000E+00  0.00000000E+00 -8.98531434E-01  0.00000000E+00  0.00000000E+00
  0.00000000E+00  1.52431849E+00  0.00000000E+00  0.00000000E+00  0.00000000E+00
 -8.35486723E-01  0.00000000E+00  0.00000000E+00  0.00000000E+00  0.00000000E+00
  0.00000000E+00  0.00000000E+00  0.00000000E+00  0.00000000E+00  0.00000000E+00
  0.00000000E+00  0.00000000E+00  0.00000000E+00 -8.98531434E-01  0.00000000E+00
  0.00000000E+00  0.00000000E+00  1.52431849E+00  0.00000000E+00  0.00000000E+00
  0.00000000E+00 -8.35486723E-01  0.00000000E+00  0.00000000E+00  0.00000000E+00
  0.00000000E+00  0.00000000E+00  0.00000000E+00 -5.14165936E-02 -1.68972544E+00
  0.00000000E+00  0.00000000E+00  0.00000000E+00  3.58414377E+00  0.00000000E+00
  0.00000000E+00  0.00000000E+00 -1.41727838E+00  0.00000000E+00  0.00000000E+00
  0.00000000E+00 -4.24605271E-01 -4.24605271E-01 -4.24605271E-01  0.00000000E+00
  0.00000000E+00  0.00000000E+00  0.00000000E+00  0.00000000E+00  0.00000000E+00
  0.00000000E+00  0.00000000E+00  0.00000000E+00  0.00000000E+00  0.00000000E+00
  0.00000000E+00  0.00000000E+00  0.00000000E+00  0.00000000E+00  0.00000000E+00
  0.00000000E+00  0.00000000E+00  0.00000000E+00  0.00000000E+00  1.00000000E+00
  0.00000000E+00  0.00000000E+00  0.00000000E+00  0.00000000E+00  0.00000000E+00
  0.00000000E+00  0.00000000E+00  0.00000000E+00  0.00000000E+00  0.00000000E+00
  0.00000000E+00  0.00000000E+00  0.00000000E+00  0.00000000E+00  0.00000000E+00
  0.00000000E+00  0.00000000E+00  0.00000000E+00  0.00000000E+00  1.00000000E+00
  0.00000000E+00  0.00000000E+00  0.00000000E+00  0.00000000E+00  0.00000000E+00
  0.00000000E+00  0.00000000E+00  0.00000000E+00  0.00000000E+00  0.00000000E+00
  0.00000000E+00  0.00000000E+00  0.00000000E+00  0.00000000E+00  0.00000000E+00
  0.00000000E+00  1.00000000E+00  0.00000000E+00  0.00000000E+00  3.82983641E-16
 -1.03062414E-14  0.00000000E+00  0.00000000E+00  0.00000000E+00  1.56103480E-14
  0.00000000E+00  0.00000000E+00  0.00000000E+00 -8.56854016E-15  0.00000000E+00
  0.00000000E+00  0.00000000E+00 -8.23070036E-01  9.03385389E-01 -8.03153531E-02
  0.00000000E+00  0.00000000E+00  0.00000000E+00 -1.78827382E-15  4.84864993E-14
  0.00000000E+00  0.00000000E+00  0.00000000E+00 -7.65267207E-14  0.00000000E+00
  0.00000000E+00  0.00000000E+00  3.85144197E-14  0.00000000E+00  0.00000000E+00
  0.00000000E+00 -5.67939888E-01 -4.28829616E-01  9.96769504E-01  0.00000000E+00
  0.00000000E+00  0.00000000E+00 -4.79976062E-01  1.31581447E-01  0.00000000E+00
  0.00000000E+00  0.00000000E+00  4.00831303E+00  0.00000000E+00  0.00000000E+00
  0.00000000E+00 -9.05653890E-01  0.00000000E+00  0.00000000E+00  0.00000000E+00
 -1.61391732E+00 -1.61391732E+00 -1.61391732E+00  0.00000000E+00  0.00000000E+00
  0.00000000E+00
Orthonormal basis                          R   N=         361
  4.59663719E-02  2.16427895E-01  0.00000000E+00  0.00000000E+00  0.00000000E+00
  2.61300377E-01  0.00000000E+00  0.00000000E+00  0.00000000E+00  2.02493944E-01
  0.00000000E+00  0.00000000E+00  0.00000000E+00  1.88153971E-01  1.88153971E-01
  1.88153971E-01  0.00000000E+00  0.00000000E+00  0.00000000E+00  9.50255755E-01
  1.80379177E-01  0.00000000E+00  0.00000000E+00  0.00000000E+00 -1.50269768E-02
  0.00000000E+00  0.00000000E+00  0.00000000E+00 -1.25524514E-01  0.00000000E+00
  0.00000000E+00  0.00000000E+00 -9.45579942E-02 -9.45579942E-02 -9.45579942E-02
  0.00000000E+00  0.00000000E+00  0.00000000E+00  2.91092879E-17  1.03810830E-16
  0.00000000E+00  0.00000000E+00  0.00000000E+00 -3.40718639E-16  0.00000000E+00
  0.00000000E+00  0.00000000E+00  1.34861170E-17  0.00000000E+00  0.00000000E+00
  0.00000000E+00  8.78439709E-01 -8.53052863E-01 -2.53868459E-02  0.00000000E+00
  0.00000000E+00  0.00000000E+00 -8.44869698E-16  1.67731823E-15  0.00000000E+00
  0.00000000E+00  0.00000000E+00  1.79108161E-15  0.00000000E+00  0.00000000E+00
  0.00000000E+00 -4.38036148E-15  0.00000000E+00  0.00000000E+00  0.00000000E+00
 -4.77853198E-01 -5.21824505E-01  9.99677702E-01  0.00000000E+00  0.00000000E+00
  0.00000000E+00  2.25073338E-01 -7.19335415E-01  0.00000000E+00  0.00000000E+00
  0.00000000E+00  1.12308346E-01  0.00000000E+00  0.00000000E+00  0.00000000E+00
  1.01615881E+00  0.00000000E+00  0.00000000E+00  0.00000000E+00 -1.59043103E-01
 -1.59043103E-01 -1.59043103E-01  0.00000000E+00  0.00000000E+00  0.00000000E+00
 -3.73766816E-01  1.37221686E+00  0.00000000E+00  0.00000000E+00  0.00000000E+00
 -1.32238983E-01  0.00000000E+00  0.00000000E+00  0.00000000E+00  7.40113812E-01
  0.00000000E+00  0.00000000E+00  0.00000000E+00 -6.99993679E-01 -6.99993679E-01
 -6.99993679E-01  0.00000000E+00  0.00000000E+00  0.00000000E+00 -4.33328958E-01
 -8.86120876E-01  0.00000000E+00  0.00000000E+00  0.00000000E+00  5.45532674E+00
  0.00000000E+00  0.00000000E+00  0.00000000E+00 -1.83484263E+00  0.00000000E+00
  0.00000000E+00  0.00000000E+00 -1.49210169E+00 -1.49210169E+00 -1.49210169E+00
  0.00000000E+00  0.00000000E+00  0.00000000E+00  0.00000000E+00  0.00000000E+00
  0.00000000E+00  0.00000000E+00  0.00000000E+00  0.00000000E+00  0.00000000E+00
  0.00000000E+00  0.00000000E+00  0.00000000E+00  0.00000000E+00  0.00000000E+00
  0.00000000E+00  0.00000000E+00  0.00000000E+00  0.00000000E+00  1.00000000E+00
  0.00000000E+00  0.00000000E+00  0.00000000E+00  0.00000000E+00  0.00000000E+00
  0.00000000E+00  0.00000000E+00  0.00000000E+00  0.00000000E+00  0.00000000E+00
  0.00000000E+00  0.00000000E+00  0.00000000E+00  0.00000000E+00  0.00000000E+00
  0.00000000E+00  0.00000000E+00  0.00000000E+00  0.00000000E+00  1.00000000E+00
  0.00000000E+00  0.00000000E+00  0.00000000E+00  0.00000000E+00  0.00000000E+00
  0.00000000E+00  0.00000000E+00  0.00000000E+00  0.00000000E+00  0.00000000E+00
  0.00000000E+00  0.00000000E+00  0.00000000E+00  0.00000000E+00  0.00000000E+00
  0.00000000E+00  0.00000000E+00  0.00000000E+00  0.00000000E+00  1.00000000E+00
  0.00000000E+00  0.00000000E+00  0.00000000E+00  0.00000000E+00  3.38496871E-01
  0.00000000E+00  0.00000000E+00  0.00000000E+00  4.84301624E-01  0.00000000E+00
  0.00000000E+00  0.00000000E+00  4.13451438E-01  0.00000000E+00  0.00000000E+00
  0.00000000E+00  0.00000000E+00  0.00000000E+00  0.00000000E+00  0.00000000E+00
  0.00000000E+00  0.00000000E+00  0.00000000E+00  8.79966812E-01  0.00000000E+00
  0.00000000E+00  0.00000000E+00 -6.66489147E-02  0.00000000E+00  0.00000000E+00
  0.00000000E+00 -6.42367665E-01  0.00000000E+00  0.00000000E+00  0.00000000E+00
  0.00000000E+00  0.00000000E+00  0.00000000E+00  0.00000000E+00  0.00000000E+00
  0.00000000E+00  0.00000000E+00 -7.38595040E-01  0.00000000E+00  0.00000000E+00
  0.00000000E+00  1.51411613E+00  0.00000000E+00  0.00000000E+00  0.00000000E+00
 -1.16888405E+00  0.00000000E+00  0.00000000E+00  0.00000000E+00  0.00000000E+00
  0.00000000E+00  0.00000000E+00  0.00000000E+00  0.00000000E+00  0.00000000E+00
  3.38496871E-01  0.00000000E+00  0.00000000E+00  0.00000000E+00  4.84301624E-01
  0.00000000E+00  0.00000000E+00  0.00000000E+00  4.13451438E-01  0.00000000E+00
  0.00000000E+00  0.00000000E+00  0.00000000E+00  0.00000000E+00  0.00000000E+00
  0.00000000E+00  0.00000000E+00  0.00000000E+00  0.00000000E+00  8.79966812E-01
  0.00000000E+00  0.00000000E+00  0.00000000E+00 -6.66489147E-02  0.00000000E+00
  0.00000000E+00  0.00000000E+00 -6.42367665E-01  0.00000000E+00  0.00000000E+00
  0.00000000E+00  0.00000000E+00  0.00000000E+00  0.00000000E+00  0.00000000E+00
  0.00000000E+00  0.00000000E+00  0.00000000E+00 -7.38595040E-01  0.00000000E+00
  0.00000000E+00  0.00000000E+00  1.51411613E+00  0.00000000E+00  0.00000000E+00
  0.00000000E+00 -1.16888405E+00  0.00000000E+00  0.00000000E+00  0.00000000E+00
  0.00000000E+00  0.00000000E+00  0.00000000E+00  0.00000000E+00  0.00000000E+00
  0.00000000E+00  3.38496871E-01  0.00000000E+00  0.00000000E+00  0.00000000E+00
  4.84301624E-01  0.00000000E+00  0.00000000E+00  0.00000000E+00  4.13451438E-01
  0.00000000E+00  0.00000000E+00  0.00000000E+00  0.00000000E+00  0.00000000E+00
  0.00000000E+00  0.00000000E+00  0.00000000E+00  0.00000000E+00  0.00000000E+00
  8.79966812E-01  0.00000000E+00  0.00000000E+00  0.00000000E+00 -6.66489147E-02
  0.00000000E+00  0.00000000E+00  0.00000000E+00 -6.42367665E-01  0.00000000E+00
  0.00000000E+00  0.00000000E+00  0.00000000E+00  0.00000000E+00  0.00000000E+00
  0.00000000E+00  0.00000000E+00  0.00000000E+00  0.00000000E+00 -7.38595040E-01
  0.00000000E+00  0.00000000E+00  0.00000000E+00  1.51411613E+00  0.00000000E+00
  0.00000000E+00  0.00000000E+00 -1.16888405E+00  0.00000000E+00  0.00000000E+00
  0.00000000E+00  0.00000000E+00  0.00000000E+00  0.00000000E+00  0.00000000E+00
  0.00000000E+00
Total SCF Density                          R   N=         190
  2.08621802E+00 -2.41689426E-01  7.49835170E-01  0.00000000E+00  0.00000000E+00
  6.26249457E-01  0.00000000E+00  0.00000000E+00  3.42650760E-18  6.26249457E-01
  0.00000000E+00  0.00000000E+00 -1.74023499E-20  6.17387732E-19  6.26249457E-01
 -2.12526296E-01  6.00441818E-01  0.00000000E+00  0.00000000E+00  0.00000000E+00
  4.85111064E-01  0.00000000E+00  0.00000000E+00  2.65384290E-01  1.45204323E-18
 -7.37455373E-21  0.00000000E+00  1.12461289E-01  0.00000000E+00  0.00000000E+00
  1.45204323E-18  2.65384290E-01  2.61628977E-19  0.00000000E+00  6.15329016E-19
  1.12461289E-01  0.00000000E+00  0.00000000E+00 -7.37455373E-21  2.61628977E-19
  2.65384290E-01  0.00000000E+00 -3.12509765E-21  1.10869909E-19  1.12461289E-01
  1.02842897E-02 -3.74884673E-02  0.00000000E+00  0.00000000E+00  0.00000000E+00
 -2.95875126E-02  0.00000000E+00  0.00000000E+00  0.00000000E+00  1.91855280E-03
  0.00000000E+00  0.00000000E+00 -5.47409468E-03 -2.99513665E-20  1.52115279E-22
  0.00000000E+00 -2.31974449E-03 -1.26924216E-20  6.44615415E-23  0.00000000E+00
  4.78494827E-05  0.00000000E+00  0.00000000E+00 -2.99513665E-20 -5.47409468E-03
 -5.39663366E-21  0.00000000E+00 -1.26924216E-20 -2.31974449E-03 -2.28691902E-21
  0.00000000E+00  2.61807199E-22  4.78494827E-05  0.00000000E+00  0.00000000E+00
  1.52115279E-22 -5.39663366E-21 -5.47409468E-03  0.00000000E+00  6.44615415E-23
 -2.28691902E-21 -2.31974449E-03  0.00000000E+00 -1.32965136E-24  4.71723900E-23
  4.78494827E-05 -1.82836896E-02  3.38398058E-03  0.00000000E+00  0.00000000E+00
  0.00000000E+00  2.83452663E-03  0.00000000E+00  0.00000000E+00  0.00000000E+00
 -1.56015831E-04  0.00000000E+00  0.00000000E+00  0.00000000E+00  1.65627219E-04
 -1.82836896E-02  3.38398058E-03  0.00000000E+00  0.00000000E+00  0.00000000E+00
  2.83452663E-03  0.00000000E+00  0.00000000E+00  0.00000000E+00 -1.56015831E-04
  0.00000000E+00  0.00000000E+00  0.00000000E+00  1.65627219E-04  1.65627219E-04
 -1.82836896E-02  3.38398058E-03  0.00000000E+00  0.00000000E+00  0.00000000E+00
  2.83452663E-03  0.00000000E+00  0.00000000E+00  0.00000000E+00 -1.56015831E-04
  0.00000000E+00  0.00000000E+00  0.00000000E+00  1.65627219E-04  1.65627219E-04
  1.65627219E-04 -1.15514777E-19  2.13796980E-20  0.00000000E+00  0.00000000E+00
  0.00000000E+00  1.79082953E-20  0.00000000E+00  0.00000000E+00  0.00000000E+00
 -9.85694592E-22  0.00000000E+00  0.00000000E+00  0.00000000E+00  1.04641852E-21
  1.04641852E-21  1.04641852E-21  3.40412795E-36  5.86669814E-22 -1.08581982E-22