fubar
SP        UPBEPBE                                                     6-31+G(d,p)
Number of atoms                            I                1
Info1-9                                    I   N=           9
          11          10           0           0           0         110
           1          18         902
Charge                                     I                3
Multiplicity                               I                2
Number of electrons                        I                3
Number of alpha electrons                  I                2
Number of beta electrons                   I                1
Number of basis functions                  I               19
Number of independent functions            I               19
Number of point charges in /Mol/           I                0
Number of translation vectors              I                0
Atomic numbers                             I   N=           1
           6
Nuclear charges                            R   N=           1
  6.00000000E+00
Current cartesian coordinates              R   N=           3
  0.00000000E+00  0.00000000E+00  0.00000000E+00
Force Field                                I                0
Int Atom Types                             I   N=           1
           0
MM charges                                 R   N=           1
  0.00000000E+00
Integer atomic weights                     I   N=           1
          12
Real atomic weights                        R   N=           1
  1.20000000E+01
Atom fragment info                         I   N=           1
           0
Atom residue num                           I   N=           1
           0
Nuclear spins                              I   N=           1
           0
Nuclear ZEff                               R   N=           1
 -3.60000000E+00
Nuclear ZNuc                               R   N=           1
  6.00000000E+00
Nuclear QMom                               R   N=           1
  0.00000000E+00
Nuclear GFac                               R   N=           1
  0.00000000E+00
MicOpt                                     I   N=           1
          -1
Number of contracted shells                I                5
Number of primitive shells                 I               12
Pure/Cartesian d shells                    I                1
Pure/Cartesian f shells                    I                0
Highest angular momentum                   I                2
Largest degree of contraction              I                6
Shell types                                I   N=           5
           0          -1          -1          -1           2
Number of primitives per shell             I   N=           5
           6           3           1           1           1
Shell to atom map                          I   N=           5
           1           1           1           1           1
Primitive exponents                        R   N=          12
  3.04752488E+03  4.57369518E+02  1.03948685E+02  2.92101553E+01  9.28666296E+00
  3.16392696E+00  7.86827235E+00  1.88128854E+00  5.44249258E-01  1.68714478E-01
  4.38000000E-02  8.00000000E-01
Contraction coefficients                   R   N=          12
  1.83473713E-03  1.40373228E-02  6.88426223E-02  2.32184443E-01  4.67941348E-01
  3.62311985E-01 -1.19332420E-01 -1.60854152E-01  1.14345644E+00  1.00000000E+00
  1.00000000E+00  1.00000000E+00
P(S=P) Contraction coefficients            R   N=          12
  0.00000000E+00  0.00000000E+00  0.00000000E+00  0.00000000E+00  0.00000000E+00
  0.00000000E+00  6.89990666E-02  3.16423961E-01  7.44308291E-01  1.00000000E+00
  1.00000000E+00  0.00000000E+00
Coordinates of each shell                  R   N=          15
  0.00000000E+00  0.00000000E+00  0.00000000E+00  0.00000000E+00  0.00000000E+00
  0.00000000E+00  0.00000000E+00  0.00000000E+00  0.00000000E+00  0.00000000E+00
  0.00000000E+00  0.00000000E+00  0.00000000E+00  0.00000000E+00  0.00000000E+00
Constraint Structure                       R   N=           3
  0.00000000E+00  0.00000000E+00  0.00000000E+00
Num ILSW                                   I              100
ILSW                                       I   N=         100
           1           1           0           0           2           0
           0           0           0           0        1009          -1
           0           0           0           0           0           0
           0           0           0           0           0           0
           1           0           0           0           0           0
           0           0      100000           0          -1           0
           0           0           0           0           0           0
           0           0           0           1           0           0
           0           0           1           0           0           0
           0           0           4          41           0           0
           0           0           0           0           0           0
           0           0           0           1           0           0
           0           0           0           0           0           0
           0           0           0           0           0           0
           0           0           0           0           0           0
           0           0           0           0           0           0
           0           0           0           0
Num RLSW                                   I               41
RLSW                                       R   N=          41
  1.00000000E+00  1.00000000E+00  1.00000000E+00  1.00000000E+00  0.00000000E+00
  0.00000000E+00  0.00000000E+00  1.00000000E+00  0.00000000E+00  0.00000000E+00
  0.00000000E+00  0.00000000E+00  1.00000000E+00  0.00000000E+00  0.00000000E+00
  0.00000000E+00  0.00000000E+00  1.00000000E+00  0.00000000E+00  0.00000000E+00
  0.00000000E+00  0.00000000E+00  1.00000000E+00  0.00000000E+00  0.00000000E+00
  0.00000000E+00  0.00000000E+00  1.00000000E+00  0.00000000E+00  0.00000000E+00
  0.00000000E+00  0.00000000E+00  1.00000000E+00  0.00000000E+00  0.00000000E+00
  0.00000000E+00  0.00000000E+00  0.00000000E+00  1.00000000E+00  1.00000000E+00
  0.00000000E+00
MxBond                                     I                1
NBond                                      I   N=           1
           0
IBond                                      I   N=           1
           0
RBond                                      R   N=           1
  0.00000000E+00
Virial Ratio                               R      2.010595467325393E+00
SCF Energy                                 R     -3.472063934789448E+01
Total Energy                               R     -3.472063934789448E+01
S**2                                       R      7.500002055862557E-01
S**2 after annihilation                    R      7.500000000000000E-01
RMS Density                                R      3.069883622328086E-09
External E-field                           R   N=          35
  0.00000000E+00  0.00000000E+00  0.00000000E+00  0.00000000E+00  0.00000000E+00
  0.00000000E+00  0.00000000E+00  0.00000000E+00  0.00000000E+00  0.00000000E+00
  0.00000000E+00  0.00000000E+00  0.00000000E+00  0.00000000E+00  0.00000000E+00
  0.00000000E+00  0.00000000E+00  0.00000000E+00  0.00000000E+00  0.00000000E+00
  0.00000000E+00  0.00000000E+00  0.00000000E+00  0.00000000E+00  0.00000000E+00
  0.00000000E+00  0.00000000E+00  0.00000000E+00  0.00000000E+00  0.00000000E+00
  0.00000000E+00  0.00000000E+00  0.00000000E+00  0.00000000E+00  0.00000000E+00
IOpCl                                      I                1
IROHF                                      I                0
Alpha Orbital Energies                     R   N=          19
 -1.22153061E+01 -2.11652597E+00 -1.81050673E+00 -1.81050673E+00 -1.81050673E+00
 -7.32146950E-01 -6.79917222E-01 -6.79917222E-01 -6.79917222E-01 -3.31403068E-01
 -3.31403068E-01 -3.31403068E-01 -2.60934952E-01 -3.20440163E-04 -3.20440163E-04
 -3.20440163E-04 -3.20440163E-04 -3.20440163E-04  2.15684312E+00
Beta Orbital Energies                      R   N=          19
 -1.21766663E+01 -1.87151296E+00 -1.58373510E+00 -1.58373510E+00 -1.58373510E+00
 -6.47100213E-01 -5.90310737E-01 -5.90310737E-01 -5.90310737E-01 -2.85701061E-01
 -2.85701061E-01 -2.85701061E-01 -1.75049278E-01  2.88285063E-01  2.88285063E-01
  2.88285063E-01  2.88285063E-01  2.88285063E-01  2.31828133E+00
Alpha MO coefficients                      R   N=         361
  9.94271291E-01  3.82388729E-02  0.00000000E+00  0.00000000E+00  0.00000000E+00
 -7.69523331E-03  0.00000000E+00  0.00000000E+00  0.00000000E+00  1.99023752E-03
  0.00000000E+00  0.00000000E+00  0.00000000E+00 -6.54410200E-03 -6.54410200E-03
 -6.54410200E-03  0.00000000E+00  0.00000000E+00  0.00000000E+00 -2.57684124E-01
  9.52480463E-01  0.00000000E+00  0.00000000E+00  0.00000000E+00  2.63114114E-01
  0.00000000E+00  0.00000000E+00  0.00000000E+00 -2.99451886E-02  0.00000000E+00
  0.00000000E+00  0.00000000E+00 -6.25007482E-02 -6.25007482E-02 -6.25007482E-02
  0.00000000E+00  0.00000000E+00  0.00000000E+00  0.00000000E+00  0.00000000E+00
  0.00000000E+00  0.00000000E+00  9.65564158E-01  0.00000000E+00  0.00000000E+00
  0.00000000E+00  5.50307948E-02  0.00000000E+00  0.00000000E+00  0.00000000E+00
  1.04481886E-02  0.00000000E+00  0.00000000E+00  0.00000000E+00  0.00000000E+00
  0.00000000E+00  0.00000000E+00  0.00000000E+00  0.00000000E+00  9.65564158E-01
  0.00000000E+00  0.00000000E+00  0.00000000E+00  5.50307948E-02  0.00000000E+00
  0.00000000E+00  0.00000000E+00  1.04481886E-02  0.00000000E+00  0.00000000E+00
  0.00000000E+00  0.00000000E+00  0.00000000E+00  0.00000000E+00  0.00000000E+00
  0.00000000E+00  0.00000000E+00  0.00000000E+00  0.00000000E+00  9.65564158E-01
  0.00000000E+00  0.00000000E+00  0.00000000E+00  5.50307948E-02  0.00000000E+00
  0.00000000E+00  0.00000000E+00  1.04481886E-02  0.00000000E+00  0.00000000E+00
  0.00000000E+00  0.00000000E+00  0.00000000E+00  0.00000000E+00  0.00000000E+00
 -4.93776855E-02  1.03157373E+00  0.00000000E+00  0.00000000E+00  0.00000000E+00
 -6.46207033E-01  0.00000000E+00  0.00000000E+00  0.00000000E+00 -7.32153648E-01
  0.00000000E+00  0.00000000E+00  0.00000000E+00 -4.98557319E-02 -4.98557319E-02
 -4.98557319E-02  0.00000000E+00  0.00000000E+00  0.00000000E+00  0.00000000E+00
  0.00000000E+00  0.00000000E+00  0.00000000E+00 -6.42572337E-01  0.00000000E+00
  0.00000000E+00  0.00000000E+00  9.45067902E-01  0.00000000E+00  0.00000000E+00
  0.00000000E+00  3.16878972E-01  0.00000000E+00  0.00000000E+00  0.00000000E+00
  0.00000000E+00  0.00000000E+00  0.00000000E+00  0.00000000E+00  0.00000000E+00
 -6.42572337E-01  0.00000000E+00  0.00000000E+00  0.00000000E+00  9.45067902E-01
  0.00000000E+00  0.00000000E+00  0.00000000E+00  3.16878972E-01  0.00000000E+00
  0.00000000E+00  0.00000000E+00  0.00000000E+00  0.00000000E+00  0.00000000E+00
  0.00000000E+00  0.00000000E+00  0.00000000E+00  0.00000000E+00  0.00000000E+00
 -6.42572337E-01  0.00000000E+00  0.00000000E+00  0.00000000E+00  9.45067902E-01
  0.00000000E+00  0.00000000E+00  0.00000000E+00  3.16878972E-01  0.00000000E+00
  0.00000000E+00  0.00000000E+00  0.00000000E+00  0.00000000E+00  0.00000000E+00
  0.00000000E+00  0.00000000E+00  0.00000000E+00  0.00000000E+00  0.00000000E+00
  4.90046176E-01  0.00000000E+00  0.00000000E+00  0.00000000E+00 -1.21003381E+00
  0.00000000E+00  0.00000000E+00  0.00000000E+00  1.24018454E+00  0.00000000E+00
  0.00000000E+00  0.00000000E+00  0.00000000E+00  0.00000000E+00  0.00000000E+00
  0.00000000E+00  0.00000000E+00  0.00000000E+00  4.90046176E-01  0.00000000E+00
  0.00000000E+00  0.00000000E+00 -1.21003381E+00  0.00000000E+00  0.00000000E+00
  0.00000000E+00  1.24018454E+00  0.00000000E+00  0.00000000E+00  0.00000000E+00
  0.00000000E+00  0.00000000E+00  0.00000000E+00  0.00000000E+00  0.00000000E+00
  0.00000000E+00  4.90046176E-01  0.00000000E+00  0.00000000E+00  0.00000000E+00
 -1.21003381E+00  0.00000000E+00  0.00000000E+00  0.00000000E+00  1.24018454E+00
  0.00000000E+00  0.00000000E+00  0.00000000E+00  0.00000000E+00  0.00000000E+00
  0.00000000E+00  0.00000000E+00  0.00000000E+00 -1.23684713E-02 -1.57669002E+00
  0.00000000E+00  0.00000000E+00  0.00000000E+00  2.45292708E+00  0.00000000E+00
  0.00000000E+00  0.00000000E+00 -1.47695483E+00  0.00000000E+00  0.00000000E+00
  0.00000000E+00  5.88939566E-02  5.88939566E-02  5.88939566E-02  0.00000000E+00
  0.00000000E+00  0.00000000E+00 -5.61050834E-17  3.22015906E-15  0.00000000E+00
  0.00000000E+00  0.00000000E+00 -4.95104660E-15  0.00000000E+00  0.00000000E+00
  0.00000000E+00  2.20906178E-15  0.00000000E+00  0.00000000E+00  0.00000000E+00
 -8.23738639E-01  9.02879493E-01 -7.91408537E-02  0.00000000E+00  0.00000000E+00
  0.00000000E+00  5.59795571E-17 -4.65324085E-17  0.00000000E+00  0.00000000E+00
  0.00000000E+00  1.05291050E-16  0.00000000E+00  0.00000000E+00  0.00000000E+00
 -2.30045952E-16  0.00000000E+00  0.00000000E+00  0.00000000E+00 -5.66969712E-01
 -4.29893732E-01  9.96863444E-01  0.00000000E+00  0.00000000E+00  0.00000000E+00
  0.00000000E+00  0.00000000E+00  0.00000000E+00  0.00000000E+00  0.00000000E+00
  0.00000000E+00  0.00000000E+00  0.00000000E+00  0.00000000E+00  0.00000000E+00
  0.00000000E+00  0.00000000E+00  0.00000000E+00  0.00000000E+00  0.00000000E+00
  0.00000000E+00  1.00000000E+00  0.00000000E+00  0.00000000E+00  0.00000000E+00
  0.00000000E+00  0.00000000E+00  0.00000000E+00  0.00000000E+00  0.00000000E+00
  0.00000000E+00  0.00000000E+00  0.00000000E+00  0.00000000E+00  0.00000000E+00
  0.00000000E+00  0.00000000E+00  0.00000000E+00  0.00000000E+00  0.00000000E+00
  0.00000000E+00  1.00000000E+00  0.00000000E+00  0.00000000E+00  0.00000000E+00
  0.00000000E+00  0.00000000E+00  0.00000000E+00  0.00000000E+00  0.00000000E+00
  0.00000000E+00  0.00000000E+00  0.00000000E+00  0.00000000E+00  0.00000000E+00
  0.00000000E+00  0.00000000E+00  0.00000000E+00  0.00000000E+00  0.00000000E+00
  0.00000000E+00  1.00000000E+00 -4.42471230E-01  2.90124012E+00  0.00000000E+00
  0.00000000E+00  0.00000000E+00  1.40081888E+00  0.00000000E+00  0.00000000E+00
  0.00000000E+00 -4.20475733E-01  0.00000000E+00  0.00000000E+00  0.00000000E+00
 -1.78913865E+00 -1.78913865E+00 -1.78913865E+00  0.00000000E+00  0.00000000E+00
  0.00000000E+00
Beta MO coefficients                       R   N=         361
  9.94554429E-01  3.64127084E-02  0.00000000E+00  0.00000000E+00  0.00000000E+00
 -6.98142785E-03  0.00000000E+00  0.00000000E+00  0.00000000E+00  1.79241813E-03
  0.00000000E+00  0.00000000E+00  0.00000000E+00 -6.45759805E-03 -6.45759805E-03
 -6.45759805E-03  0.00000000E+00  0.00000000E+00  0.00000000E+00 -2.65780626E-01
  1.01185073E+00  0.00000000E+00  0.00000000E+00  0.00000000E+00  2.91965516E-01
  0.00000000E+00  0.00000000E+00  0.00000000E+00 -3.03386871E-02  0.00000000E+00
  0.00000000E+00  0.00000000E+00 -1.01104436E-01 -1.01104436E-01 -1.01104436E-01
  0.00000000E+00  0.00000000E+00  0.00000000E+00  0.00000000E+00  0.00000000E+00
  0.00000000E+00  0.00000000E+00  9.72971174E-01  0.00000000E+00  0.00000000E+00
  0.00000000E+00  3.88810438E-02  0.00000000E+00  0.00000000E+00  0.00000000E+00
  2.24054039E-02  0.00000000E+00  0.00000000E+00  0.00000000E+00  0.00000000E+00
  0.00000000E+00  0.00000000E+00  0.00000000E+00  0.00000000E+00  0.00000000E+00
  9.72971174E-01  0.00000000E+00  0.00000000E+00  0.00000000E+00  3.88810438E-02
  0.00000000E+00  0.00000000E+00  0.00000000E+00  2.24054039E-02  0.00000000E+00
  0.00000000E+00  0.00000000E+00  0.00000000E+00  0.00000000E+00  0.00000000E+00
  0.00000000E+00  0.00000000E+00  0.00000000E+00  9.72971174E-01  0.00000000E+00
  0.00000000E+00  0.00000000E+00  3.88810438E-02  0.00000000E+00  0.00000000E+00
  0.00000000E+00  2.24054039E-02  0.00000000E+00  0.00000000E+00  0.00000000E+00
  0.00000000E+00  0.00000000E+00  0.00000000E+00  0.00000000E+00  0.00000000E+00
  5.43490606E-02 -8.23426139E-01  0.00000000E+00  0.00000000E+00  0.00000000E+00
  2.90159556E-01  0.00000000E+00  0.00000000E+00  0.00000000E+00  9.32610267E-01
  0.00000000E+00  0.00000000E+00  0.00000000E+00  5.04244788E-02  5.04244788E-02
  5.04244788E-02  0.00000000E+00  0.00000000E+00  0.00000000E+00  0.00000000E+00
  0.00000000E+00  0.00000000E+00  0.00000000E+00 -5.57396744E-01  0.00000000E+00
  0.00000000E+00  0.00000000E+00  7.47073443E-01  0.00000000E+00  0.00000000E+00
  0.00000000E+00  5.04526010E-01  0.00000000E+00  0.00000000E+00  0.00000000E+00
  0.00000000E+00  0.00000000E+00  0.00000000E+00  0.00000000E+00  0.00000000E+00
  0.00000000E+00 -5.57396744E-01  0.00000000E+00  0.00000000E+00  0.00000000E+00
  7.47073443E-01  0.00000000E+00  0.00000000E+00  0.00000000E+00  5.04526010E-01
  0.00000000E+00  0.00000000E+00  0.00000000E+00  0.00000000E+00  0.00000000E+00
  0.00000000E+00  0.00000000E+00  0.00000000E+00  0.00000000E+00 -5.57396744E-01
  0.00000000E+00  0.00000000E+00  0.00000000E+00  7.47073443E-01  0.00000000E+00
  0.00000000E+00  0.00000000E+00  5.04526010E-01  0.00000000E+00  0.00000000E+00
  0.00000000E+00  0.00000000E+00  0.00000000E+00  0.00000000E+00  0.00000000E+00
  0.00000000E+00  0.00000000E+00  0.00000000E+00  0.00000000E+00 -5.72708102E-01
  0.00000000E+00  0.00000000E+00  0.00000000E+00  1.34191396E+00  0.00000000E+00
  0.00000000E+00  0.00000000E+00 -1.17623579E+00  0.00000000E+00  0.00000000E+00
  0.00000000E+00  0.00000000E+00  0.00000000E+00  0.00000000E+00  0.00000000E+00
  0.00000000E+00  0.00000000E+00  0.00000000E+00  0.00000000E+00 -5.72708102E-01
  0.00000000E+00  0.00000000E+00  0.00000000E+00  1.34191396E+00  0.00000000E+00
  0.00000000E+00  0.00000000E+00 -1.17623579E+00  0.00000000E+00  0.00000000E+00
  0.00000000E+00  0.00000000E+00  0.00000000E+00  0.00000000E+00  0.00000000E+00
  0.00000000E+00 -5.72708102E-01  0.00000000E+00  0.00000000E+00  0.00000000E+00
  1.34191396E+00  0.00000000E+00  0.00000000E+00  0.00000000E+00 -1.17623579E+00
  0.00000000E+00  0.00000000E+00  0.00000000E+00  0.00000000E+00  0.00000000E+00
  0.00000000E+00  0.00000000E+00  0.00000000E+00 -8.52072979E-03 -1.68751707E+00
  0.00000000E+00  0.00000000E+00  0.00000000E+00  2.52700057E+00  0.00000000E+00
  0.00000000E+00  0.00000000E+00 -1.36313909E+00  0.00000000E+00  0.00000000E+00
  0.00000000E+00  5.52914489E-02  5.52914489E-02  5.52914489E-02  0.00000000E+00
  0.00000000E+00  0.00000000E+00  9.36177443E-17 -8.61617720E-16  0.00000000E+00
  0.00000000E+00  0.00000000E+00  8.39882876E-16  0.00000000E+00  0.00000000E+00
  0.00000000E+00 -4.45269700E-16  0.00000000E+00  0.00000000E+00  0.00000000E+00
 -4.82122696E-01  9.99789415E-01 -5.17666719E-01  0.00000000E+00  0.00000000E+00
  0.00000000E+00  0.00000000E+00  0.00000000E+00  0.00000000E+00  0.00000000E+00
  0.00000000E+00  0.00000000E+00  0.00000000E+00  0.00000000E+00  0.00000000E+00
  0.00000000E+00  0.00000000E+00  0.00000000E+00  0.00000000E+00  0.00000000E+00
  0.00000000E+00  0.00000000E+00  0.00000000E+00  1.00000000E+00  0.00000000E+00
  0.00000000E+00  0.00000000E+00  0.00000000E+00  0.00000000E+00  0.00000000E+00
  0.00000000E+00  0.00000000E+00  0.00000000E+00  0.00000000E+00  0.00000000E+00
  0.00000000E+00  0.00000000E+00  0.00000000E+00  0.00000000E+00  0.00000000E+00
  0.00000000E+00  1.00000000E+00  0.00000000E+00  0.00000000E+00  0.00000000E+00
  0.00000000E+00  0.00000000E+00  0.00000000E+00  0.00000000E+00  0.00000000E+00
  0.00000000E+00  0.00000000E+00  0.00000000E+00  0.00000000E+00  0.00000000E+00
  0.00000000E+00  0.00000000E+00  0.00000000E+00  0.00000000E+00  0.00000000E+00
  0.00000000E+00  0.00000000E+00  1.00000000E+00  2.05248859E-17 -5.74902268E-16
  0.00000000E+00  0.00000000E+00  0.00000000E+00  1.06506314E-15  0.00000000E+00
  0.00000000E+00  0.00000000E+00 -1.01135128E-15  0.00000000E+00  0.00000000E+00
  0.00000000E+00  8.76103707E-01 -2.05213514E-02 -8.55582356E-01  0.00000000E+00
  0.00000000E+00  0.00000000E+00 -4.36513638E-01  2.88531784E+00  0.00000000E+00
  0.00000000E+00  0.00000000E+00  1.38231673E+00  0.00000000E+00  0.00000000E+00
  0.00000000E+00 -4.07812808E-01  0.00000000E+00  0.00000000E+00  0.00000000E+00
 -1.78747218E+00 -1.78747218E+00 -1.78747218E+00  0.00000000E+00  0.00000000E+00
  0.00000000E+00
Total SCF Density                          R   N=         190
  2.04411502E+00 -1.71204860E-01  9.10007130E-01  0.00000000E+00  0.00000000E+00
  0.00000000E+00  0.00000000E+00  0.00000000E+00  0.00000000E+00  0.00000000E+00
  0.00000000E+00  0.00000000E+00  0.00000000E+00  0.00000000E+00  0.00000000E+00
 -8.23948896E-02  2.50062584E-01  0.00000000E+00  0.00000000E+00  0.00000000E+00
  6.93369941E-02  0.00000000E+00  0.00000000E+00  0.00000000E+00  0.00000000E+00
  0.00000000E+00  0.00000000E+00  0.00000000E+00  0.00000000E+00  0.00000000E+00
  0.00000000E+00  0.00000000E+00  0.00000000E+00  0.00000000E+00  0.00000000E+00
  0.00000000E+00  0.00000000E+00  0.00000000E+00  0.00000000E+00  0.00000000E+00
  0.00000000E+00  0.00000000E+00  0.00000000E+00  0.00000000E+00  0.00000000E+00
  1.14778931E-02 -2.83808358E-02  0.00000000E+00  0.00000000E+00  0.00000000E+00
 -7.90683075E-03  0.00000000E+00  0.00000000E+00  0.00000000E+00  9.03888126E-04
  0.00000000E+00  0.00000000E+00  0.00000000E+00  0.00000000E+00  0.00000000E+00
  0.00000000E+00  0.00000000E+00  0.00000000E+00  0.00000000E+00  0.00000000E+00
  0.00000000E+00  0.00000000E+00  0.00000000E+00  0.00000000E+00  0.00000000E+00
  0.00000000E+00  0.00000000E+00  0.00000000E+00  0.00000000E+00  0.00000000E+00
  0.00000000E+00  0.00000000E+00  0.00000000E+00  0.00000000E+00  0.00000000E+00
  0.00000000E+00  0.00000000E+00  0.00000000E+00  0.00000000E+00  0.00000000E+00
  0.00000000E+00  0.00000000E+00  0.00000000E+00  0.00000000E+00  0.00000000E+00
  0.00000000E+00  3.17640506E-03 -6.00161193E-02  0.00000000E+00  0.00000000E+00
  0.00000000E+00 -1.63493874E-02  0.00000000E+00  0.00000000E+00  0.00000000E+00
  1.84699766E-03  0.00000000E+00  0.00000000E+00  0.00000000E+00  3.99086937E-03
  3.17640506E-03 -6.00161193E-02  0.00000000E+00  0.00000000E+00  0.00000000E+00
 -1.63493874E-02  0.00000000E+00  0.00000000E+00  0.00000000E+00  1.84699766E-03
  0.00000000E+00  0.00000000E+00  0.00000000E+00  3.99086937E-03  3.99086937E-03
  3.17640506E-03 -6.00161193E-02  0.00000000E+00  0.00000000E+00  0.00000000E+00
 -1.63493874E-02  0.00000000E+00  0.00000000E+00  0.00000000E+00  1.84699766E-03
  0.00000000E+00  0.00000000E+00  0.00000000E+00  3.99086937E-03  3.99086937E-03
  3.99086937E-03  2.00682538E-20 -3.79176676E-19  0.00000000E+00  0.00000000E+00
  0.00000000E+00 -1.03294022E-19  0.00000000E+00  0.00000000E+00  0.00000000E+00
  1.16691722E-20  0.00000000E+00  0.00000000E+00  0.00000000E+00  2.52139692E-20
  2.52139692E-20  2.52139692E-20  8.20241384E-35 -1.01921494E-22  1.92574072E-21
  0.00000000E+00  0.00000000E+00  0.00000000E+00  5.24603744E-22  0.00000000E+00
  0.00000000E+00  0.00000000E+00 -5.92647214E-23  0.00000000E+00  0.00000000E+00
  0.00000000E+00 -1.28055258E-22 -1.28055258E-22 -1.28055258E-22  1.32371135E-37
  2.95016810E-35  3.61589558E-21 -6.83200085E-20  0.00000000E+00  0.00000000E+00
  0.00000000E+00 -1.86115046E-20  0.00000000E+00  0.00000000E+00  0.00000000E+00
  2.10255007E-21  0.00000000E+00  0.00000000E+00  0.00000000E+00  4.54304997E-21
  4.54304997E-21  4.54304997E-21  7.71515513E-37 -6.51273510E-36  3.22345290E-35
Spin SCF Density                           R   N=         190
  6.58379956E-02 -2.43633701E-01  9.07355359E-01  0.00000000E+00  0.00000000E+00
  0.00000000E+00  0.00000000E+00  0.00000000E+00  0.00000000E+00  0.00000000E+00
  0.00000000E+00  0.00000000E+00  0.00000000E+00  0.00000000E+00  0.00000000E+00
 -6.85080697E-02  2.50571009E-01  0.00000000E+00  0.00000000E+00  0.00000000E+00
  6.92395135E-02  0.00000000E+00  0.00000000E+00  0.00000000E+00  0.00000000E+00
  0.00000000E+00  0.00000000E+00  0.00000000E+00  0.00000000E+00  0.00000000E+00
  0.00000000E+00  0.00000000E+00  0.00000000E+00  0.00000000E+00  0.00000000E+00
  0.00000000E+00  0.00000000E+00  0.00000000E+00  0.00000000E+00  0.00000000E+00
  0.00000000E+00  0.00000000E+00  0.00000000E+00  0.00000000E+00  0.00000000E+00
  7.91257833E-03 -2.85113694E-02  0.00000000E+00  0.00000000E+00  0.00000000E+00
 -7.88180347E-03  0.00000000E+00  0.00000000E+00  0.00000000E+00  8.97462601E-04
  0.00000000E+00  0.00000000E+00  0.00000000E+00  0.00000000E+00  0.00000000E+00
  0.00000000E+00  0.00000000E+00  0.00000000E+00  0.00000000E+00  0.00000000E+00
  0.00000000E+00  0.00000000E+00  0.00000000E+00  0.00000000E+00  0.00000000E+00
  0.00000000E+00  0.00000000E+00  0.00000000E+00  0.00000000E+00  0.00000000E+00
  0.00000000E+00  0.00000000E+00  0.00000000E+00  0.00000000E+00  0.00000000E+00
  0.00000000E+00  0.00000000E+00  0.00000000E+00  0.00000000E+00  0.00000000E+00
  0.00000000E+00  0.00000000E+00  0.00000000E+00  0.00000000E+00  0.00000000E+00
  0.00000000E+00  1.60212705E-02 -5.95458420E-02  0.00000000E+00  0.00000000E+00
  0.00000000E+00 -1.64395539E-02  0.00000000E+00  0.00000000E+00  0.00000000E+00
  1.87014709E-03  0.00000000E+00  0.00000000E+00  0.00000000E+00  3.90746822E-03
  1.60212705E-02 -5.95458420E-02  0.00000000E+00  0.00000000E+00  0.00000000E+00
 -1.64395539E-02  0.00000000E+00  0.00000000E+00  0.00000000E+00  1.87014709E-03
  0.00000000E+00  0.00000000E+00  0.00000000E+00  3.90746822E-03  3.90746822E-03
  1.60212705E-02 -5.95458420E-02  0.00000000E+00  0.00000000E+00  0.00000000E+00
 -1.64395539E-02  0.00000000E+00  0.00000000E+00  0.00000000E+00  1.87014709E-03
  0.00000000E+00  0.00000000E+00  0.00000000E+00  3.90746822E-03  3.90746822E-03
  3.90746822E-03  1.01221008E-19 -3.76205505E-19  0.00000000E+00  0.00000000E+00
  0.00000000E+00 -1.03863686E-19  0.00000000E+00  0.00000000E+00  0.00000000E+00
  1.18154283E-20  0.00000000E+00  0.00000000E+00  0.00000000E+00  2.46870479E-20
  2.46870479E-20  2.46870479E-20  8.03099989E-35 -5.14075441E-22  1.91065090E-21
  0.00000000E+00  0.00000000E+00  0.00000000E+00  5.27496922E-22  0.00000000E+00
  0.00000000E+00  0.00000000E+00 -6.00075185E-23  0.00000000E+00  0.00000000E+00
  0.00000000E+00 -1.25379160E-22 -1.25379160E-22 -1.25379160E-22  1.29604844E-37
  2.88851552E-35  1.82379893E-20 -6.77846632E-20  0.00000000E+00  0.00000000E+00
  0.00000000E+00 -1.87141467E-20  0.00000000E+00  0.00000000E+00  0.00000000E+00
  2.12890247E-21  0.00000000E+00  0.00000000E+00  0.00000000E+00  4.44810936E-21
  4.44810936E-21  4.44810936E-21  7.55392390E-37 -6.37663203E-36  3.15608921E-35
Mulliken Charges                           R   N=           1
  3.00000000E+00
ONIOM Charges                              I   N=          16
           3           0           0           0           0           0
           0           0           0           0           0           0
           0           0           0           0
ONIOM Multiplicities                       I   N=          16
           2           0           0           0           0           0
           0           0           0           0           0           0
           0           0           0           0
Atom Layers                                I   N=           1
           1
Atom Modifiers                             I   N=           1
           0
Force Field                                I                0
Int Atom Modified Types                    I   N=           1
           0
Link Atoms                                 I   N=           1
           0
Atom Modified MM Charges                   R   N=           1
  0.00000000E+00
Link Distances                             R   N=           4
  0.00000000E+00  0.00000000E+00  0.00000000E+00  0.00000000E+00
Cartesian Gradient                         R   N=           3
  0.00000000E+00  0.00000000E+00  0.00000000E+00
Dipole Moment                              R   N=           3
  0.00000000E+00  0.00000000E+00  0.00000000E+00
Quadrupole Moment                          R   N=           6
  0.00000000E+00  0.00000000E+00  0.00000000E+00  4.05437959E-19 -2.05911501E-21
  7.30517632E-20
Anisotropic Hyperfine tensors              R   N=           6
  1.18423789E-15  0.00000000E+00  1.18423789E-15  0.00000000E+00  0.00000000E+00
  1.18423789E-15
Isotropic Hyperfine splittings             R   N=           1
  3.85416016E+00
QEq coupling tensors                       R   N=           6
 -3.78956126E-14  0.00000000E+00 -3.78956126E-14  0.00000000E+00  0.00000000E+00
 -3.78956126E-14
