 Entering Gaussian System, Link 0=g09
 Input=atom.in
 Output=atom.log
 Initial command:
 /apps/gent/CO7/haswell-ib/software/Gaussian/g09_D.01-intel-2015a-amd64-gpfs/g09/l1.exe "/kyukon/home/gent/430/vsc43080/benzene/atoms/001__h_003_q-02/mult02/Gau-11778.inp" -scrdir="/kyukon/home/gent/430/vsc43080/benzene/atoms/001__h_003_q-02/mult02/"
 Entering Link 1 = /apps/gent/CO7/haswell-ib/software/Gaussian/g09_D.01-intel-2015a-amd64-gpfs/g09/l1.exe.bin PID=     11779.

 Copyright (c) 1988,1990,1992,1993,1995,1998,2003,2009,2013,
            Gaussian, Inc.  All Rights Reserved.

 This is part of the Gaussian(R) 09 program.  It is based on
 the Gaussian(R) 03 system (copyright 2003, Gaussian, Inc.),
 the Gaussian(R) 98 system (copyright 1998, Gaussian, Inc.),
 the Gaussian(R) 94 system (copyright 1995, Gaussian, Inc.),
 the Gaussian 92(TM) system (copyright 1992, Gaussian, Inc.),
 the Gaussian 90(TM) system (copyright 1990, Gaussian, Inc.),
 the Gaussian 88(TM) system (copyright 1988, Gaussian, Inc.),
 the Gaussian 86(TM) system (copyright 1986, Carnegie Mellon
 University), and the Gaussian 82(TM) system (copyright 1983,
 Carnegie Mellon University). Gaussian is a federally registered
 trademark of Gaussian, Inc.

 This software contains proprietary and confidential information,
 including trade secrets, belonging to Gaussian, Inc.

 This software is provided under written license and may be
 used, copied, transmitted, or stored only in accord with that
 written license.

 The following legend is applicable only to US Government
 contracts under FAR:

                    RESTRICTED RIGHTS LEGEND

 Use, reproduction and disclosure by the US Government is
 subject to restrictions as set forth in subparagraphs (a)
 and (c) of the Commercial Computer Software - Restricted
 Rights clause in FAR 52.227-19.

 Gaussian, Inc.
 340 Quinnipiac St., Bldg. 40, Wallingford CT 06492


 ---------------------------------------------------------------
 Warning -- This program may not be used in any manner that
 competes with the business of Gaussian, Inc. or will provide
 assistance to any competitor of Gaussian, Inc.  The licensee
 of this program is prohibited from giving any competitor of
 Gaussian, Inc. access to this program.  By using this program,
 the user acknowledges that Gaussian, Inc. is engaged in the
 business of creating and licensing software in the field of
 computational chemistry and represents and warrants to the
 licensee that it is not a competitor of Gaussian, Inc. and that
 it will not use this program in any manner prohibited above.
 ---------------------------------------------------------------


 Cite this work as:
 Gaussian 09, Revision D.01,
 M. J. Frisch, G. W. Trucks, H. B. Schlegel, G. E. Scuseria,
 M. A. Robb, J. R. Cheeseman, G. Scalmani, V. Barone, B. Mennucci,
 G. A. Petersson, H. Nakatsuji, M. Caricato, X. Li, H. P. Hratchian,
 A. F. Izmaylov, J. Bloino, G. Zheng, J. L. Sonnenberg, M. Hada,
 M. Ehara, K. Toyota, R. Fukuda, J. Hasegawa, M. Ishida, T. Nakajima,
 Y. Honda, O. Kitao, H. Nakai, T. Vreven, J. A. Montgomery, Jr.,
 J. E. Peralta, F. Ogliaro, M. Bearpark, J. J. Heyd, E. Brothers,
 K. N. Kudin, V. N. Staroverov, T. Keith, R. Kobayashi, J. Normand,
 K. Raghavachari, A. Rendell, J. C. Burant, S. S. Iyengar, J. Tomasi,
 M. Cossi, N. Rega, J. M. Millam, M. Klene, J. E. Knox, J. B. Cross,
 V. Bakken, C. Adamo, J. Jaramillo, R. Gomperts, R. E. Stratmann,
 O. Yazyev, A. J. Austin, R. Cammi, C. Pomelli, J. W. Ochterski,
 R. L. Martin, K. Morokuma, V. G. Zakrzewski, G. A. Voth,
 P. Salvador, J. J. Dannenberg, S. Dapprich, A. D. Daniels,
 O. Farkas, J. B. Foresman, J. V. Ortiz, J. Cioslowski,
 and D. J. Fox, Gaussian, Inc., Wallingford CT, 2013.

 ******************************************
 Gaussian 09:  ES64L-G09RevD.01 24-Apr-2013
                30-Sep-2020
 ******************************************
 %chk=atom.chk
 %nproc=1
 Will use up to    1 processors via shared memory.
 %mem=1GB
 --------------------------
 #PBEPBE/6-31+g** scf=tight
 --------------------------
 1/38=1/1;
 2/12=2,17=6,18=5,40=1/2;
 3/5=1,6=6,7=111,11=2,16=1,25=1,30=1,74=1009/1,2,3;
 4//1;
 5/5=2,32=2,38=5/2;
 6/7=2,8=2,9=2,10=2,28=1/1;
 99/5=1,9=1/99;
 Leave Link    1 at Wed Sep 30 15:58:58 2020, MaxMem=   134217728 cpu:         0.0
 (Enter /apps/gent/CO7/haswell-ib/software/Gaussian/g09_D.01-intel-2015a-amd64-gpfs/g09/l101.exe.bin)
 -----
 fubar
 -----
 Symbolic Z-matrix:
 Charge = -2 Multiplicity = 2
 H                     0.        0.        0.

 NAtoms=      1 NQM=        1 NQMF=       0 NMMI=      0 NMMIF=      0
                NMic=       0 NMicF=      0.
                    Isotopes and Nuclear Properties:
 (Nuclear quadrupole moments (NQMom) in fm**2, nuclear magnetic moments (NMagM)
  in nuclear magnetons)

  Atom         1
 IAtWgt=           1
 AtmWgt=   1.0078250
 NucSpn=           1
 AtZEff=   0.0000000
 NQMom=    0.0000000
 NMagM=    2.7928460
 AtZNuc=   1.0000000
 Leave Link  101 at Wed Sep 30 15:58:58 2020, MaxMem=   134217728 cpu:         0.0
 (Enter /apps/gent/CO7/haswell-ib/software/Gaussian/g09_D.01-intel-2015a-amd64-gpfs/g09/l202.exe.bin)
                          Input orientation:
 ---------------------------------------------------------------------
 Center     Atomic      Atomic             Coordinates (Angstroms)
 Number     Number       Type             X           Y           Z
 ---------------------------------------------------------------------
      1          1           0        0.000000    0.000000    0.000000
 ---------------------------------------------------------------------
 Stoichiometry    H(2-,2)
 Framework group  OH[O(H)]
 Deg. of freedom     0
 Full point group                 OH      NOp  48
 Largest Abelian subgroup         D2H     NOp   8
 Largest concise Abelian subgroup C1      NOp   1
                         Standard orientation:
 ---------------------------------------------------------------------
 Center     Atomic      Atomic             Coordinates (Angstroms)
 Number     Number       Type             X           Y           Z
 ---------------------------------------------------------------------
      1          1           0        0.000000    0.000000    0.000000
 ---------------------------------------------------------------------
 Leave Link  202 at Wed Sep 30 15:58:58 2020, MaxMem=   134217728 cpu:         0.0
 (Enter /apps/gent/CO7/haswell-ib/software/Gaussian/g09_D.01-intel-2015a-amd64-gpfs/g09/l301.exe.bin)
 Standard basis: 6-31+G(d,p) (6D, 7F)
 Ernie: Thresh=  0.10000D-02 Tol=  0.10000D-05 Strict=F.
 There are     2 symmetry adapted cartesian basis functions of AG  symmetry.
 There are     0 symmetry adapted cartesian basis functions of B1G symmetry.
 There are     0 symmetry adapted cartesian basis functions of B2G symmetry.
 There are     0 symmetry adapted cartesian basis functions of B3G symmetry.
 There are     0 symmetry adapted cartesian basis functions of AU  symmetry.
 There are     1 symmetry adapted cartesian basis functions of B1U symmetry.
 There are     1 symmetry adapted cartesian basis functions of B2U symmetry.
 There are     1 symmetry adapted cartesian basis functions of B3U symmetry.
 There are     2 symmetry adapted basis functions of AG  symmetry.
 There are     0 symmetry adapted basis functions of B1G symmetry.
 There are     0 symmetry adapted basis functions of B2G symmetry.
 There are     0 symmetry adapted basis functions of B3G symmetry.
 There are     0 symmetry adapted basis functions of AU  symmetry.
 There are     1 symmetry adapted basis functions of B1U symmetry.
 There are     1 symmetry adapted basis functions of B2U symmetry.
 There are     1 symmetry adapted basis functions of B3U symmetry.
     5 basis functions,     7 primitive gaussians,     5 cartesian basis functions
     2 alpha electrons        1 beta electrons
       nuclear repulsion energy         0.0000000000 Hartrees.
 IExCor= 1009 DFT=T Ex=PBE Corr=PBE ExCW=0 ScaHFX=  0.000000
 ScaDFX=  1.000000  1.000000  1.000000  1.000000 ScalE2=  1.000000  1.000000
 IRadAn=      0 IRanWt=     -1 IRanGd=            0 ICorTp=0 IEmpDi=  4
 NAtoms=    1 NActive=    1 NUniq=    1 SFac= 1.00D+00 NAtFMM=   60 NAOKFM=F Big=F
 Integral buffers will be    131072 words long.
 Raffenetti 2 integral format.
 Two-electron integral symmetry is turned on.
 Leave Link  301 at Wed Sep 30 15:58:58 2020, MaxMem=   134217728 cpu:         0.0
 (Enter /apps/gent/CO7/haswell-ib/software/Gaussian/g09_D.01-intel-2015a-amd64-gpfs/g09/l302.exe.bin)
 NPDir=0 NMtPBC=     1 NCelOv=     1 NCel=       1 NClECP=     1 NCelD=      1
         NCelK=      1 NCelE2=     1 NClLst=     1 CellRange=     0.0.
 One-electron integrals computed using PRISM.
 NBasis=     5 RedAO= T EigKep=  9.66D-01  NBF=     2     0     0     0     0     1     1     1
 NBsUse=     5 1.00D-06 EigRej= -1.00D+00 NBFU=     2     0     0     0     0     1     1     1
 Precomputing XC quadrature grid using
 IXCGrd= 4 IRadAn=           0 IRanWt=          -1 IRanGd=           0 AccXCQ= 0.00D+00.
 Generated NRdTot=       0 NPtTot=           0 NUsed=           0 NTot=          32
 NSgBfM=     5     5     5     5     5 MxSgAt=     1 MxSgA2=     1.
 Leave Link  302 at Wed Sep 30 15:58:58 2020, MaxMem=   134217728 cpu:         0.1
 (Enter /apps/gent/CO7/haswell-ib/software/Gaussian/g09_D.01-intel-2015a-amd64-gpfs/g09/l303.exe.bin)
 DipDrv:  MaxL=1.
 Leave Link  303 at Wed Sep 30 15:58:59 2020, MaxMem=   134217728 cpu:         0.0
 (Enter /apps/gent/CO7/haswell-ib/software/Gaussian/g09_D.01-intel-2015a-amd64-gpfs/g09/l401.exe.bin)
 ExpMin= 1.61D-01 ExpMax= 1.87D+01 ExpMxC= 1.87D+01 IAcc=1 IRadAn=         1 AccDes= 0.00D+00
 Harris functional with IExCor= 1009 and IRadAn=       1 diagonalized for initial guess.
 HarFok:  IExCor= 1009 AccDes= 0.00D+00 IRadAn=         1 IDoV= 1 UseB2=F ITyADJ=14
 ICtDFT=  3500011 ScaDFX=  1.000000  1.000000  1.000000  1.000000
 FoFCou: FMM=F IPFlag=           0 FMFlag=      100000 FMFlg1=           0
         NFxFlg=           0 DoJE=T BraDBF=F KetDBF=T FulRan=T
         wScrn=  0.000000 ICntrl=     500 IOpCl=  0 I1Cent=   200000004 NGrid=           0
         NMat0=    1 NMatS0=      1 NMatT0=    0 NMatD0=    1 NMtDS0=    0 NMtDT0=    0
 Petite list used in FoFCou.
 Harris En= 0.424441807502131E-01
 JPrj=0 DoOrth=F DoCkMO=F.
 Initial guess orbital symmetries:
 Alpha Orbitals:
       Occupied  (A1G) (A1G)
       Virtual   (T1U) (T1U) (T1U)
 Beta  Orbitals:
       Occupied  (A1G)
       Virtual   (A1G) (T1U) (T1U) (T1U)
 The electronic state of the initial guess is 2-A1G.
 Initial guess <Sx>= 0.0000 <Sy>= 0.0000 <Sz>= 0.5000 <S**2>= 0.7500 S= 0.5000
 Leave Link  401 at Wed Sep 30 15:58:59 2020, MaxMem=   134217728 cpu:         0.0
 (Enter /apps/gent/CO7/haswell-ib/software/Gaussian/g09_D.01-intel-2015a-amd64-gpfs/g09/l502.exe.bin)
 UHF open shell SCF:
 Using DIIS extrapolation, IDIIS=  1040.
 Integral symmetry usage will be decided dynamically.
 Keep J ints in memory in symmetry-blocked form, NReq=859773.
 IVT=       20304 IEndB=       20304 NGot=   134217728 MDV=   134196847
 LenX=   134196847 LenY=   134195965
 Requested convergence on RMS density matrix=1.00D-08 within 128 cycles.
 Requested convergence on MAX density matrix=1.00D-06.
 Requested convergence on             energy=1.00D-06.
 No special actions if energy rises.
 FoFCou: FMM=F IPFlag=           0 FMFlag=           0 FMFlg1=           0
         NFxFlg=           0 DoJE=F BraDBF=F KetDBF=F FulRan=T
         wScrn=  0.000000 ICntrl=     600 IOpCl=  0 I1Cent=           0 NGrid=           0
         NMat0=    1 NMatS0=     15 NMatT0=    0 NMatD0=    1 NMtDS0=    0 NMtDT0=    0
 Petite list used in FoFCou.
 Integral accuracy reduced to 1.0D-05 until final iterations.

 Cycle   1  Pass 0  IDiag  1:
 E=  1.08314307839832
 DIIS: error= 1.83D-01 at cycle   1 NSaved=   1.
 NSaved= 1 IEnMin= 1 EnMin=  1.08314307839832     IErMin= 1 ErrMin= 1.83D-01
 ErrMax= 1.83D-01  0.00D+00 EMaxC= 1.00D-01 BMatC= 2.67D-01 BMatP= 2.67D-01
 IDIUse=3 WtCom= 0.00D+00 WtEn= 1.00D+00
 Coeff-Com:  0.100D+01
 Coeff-En:   0.100D+01
 Coeff:      0.100D+01
 Gap=     1.449 Goal=   None    Shift=    0.000
 Gap=     0.982 Goal=   None    Shift=    0.000
 GapD=    0.982 DampG=2.000 DampE=0.250 DampFc=0.5000 IDamp=-1.
 Damping current iteration by 5.00D-01
 RMSDP=1.01D-01 MaxDP=5.49D-01              OVMax= 0.00D+00

 Cycle   2  Pass 0  IDiag  1:
 E=  1.02433057044746     Delta-E=       -0.058812507951 Rises=F Damp=T
 DIIS: error= 8.68D-02 at cycle   2 NSaved=   2.
 NSaved= 2 IEnMin= 2 EnMin=  1.02433057044746     IErMin= 2 ErrMin= 8.68D-02
 ErrMax= 8.68D-02  0.00D+00 EMaxC= 1.00D-01 BMatC= 6.03D-02 BMatP= 2.67D-01
 IDIUse=3 WtCom= 1.32D-01 WtEn= 8.68D-01
 Coeff-Com: -0.905D+00 0.191D+01
 Coeff-En:   0.000D+00 0.100D+01
 Coeff:     -0.119D+00 0.112D+01
 Gap=     1.367 Goal=   None    Shift=    0.000
 Gap=     1.213 Goal=   None    Shift=    0.000
 RMSDP=4.76D-02 MaxDP=2.61D-01 DE=-5.88D-02 OVMax= 0.00D+00

 Cycle   3  Pass 0  IDiag  1:
 E= 0.966135969042926     Delta-E=       -0.058194601405 Rises=F Damp=F
 DIIS: error= 3.60D-03 at cycle   3 NSaved=   3.
 NSaved= 3 IEnMin= 3 EnMin= 0.966135969042926     IErMin= 3 ErrMin= 3.60D-03
 ErrMax= 3.60D-03  0.00D+00 EMaxC= 1.00D-01 BMatC= 1.04D-04 BMatP= 6.03D-02
 IDIUse=3 WtCom= 9.64D-01 WtEn= 3.60D-02
 Large coefficients: NSaved=  3 BigCof=    0.00 CofMax=   10.00 Det= 9.55D-18
 Inversion failed.  Reducing to  2 matrices.
 Coeff-Com: -0.432D-01 0.104D+01
 Coeff-En:   0.000D+00 0.100D+01
 Coeff:     -0.417D-01 0.104D+01
 Gap=     1.377 Goal=   None    Shift=    0.000
 Gap=     1.265 Goal=   None    Shift=    0.000
 RMSDP=2.17D-03 MaxDP=1.03D-02 DE=-5.82D-02 OVMax= 0.00D+00

 Cycle   4  Pass 0  IDiag  1:
 E= 0.966089533077818     Delta-E=       -0.000046435965 Rises=F Damp=F
 DIIS: error= 3.44D-04 at cycle   4 NSaved=   3.
 NSaved= 3 IEnMin= 3 EnMin= 0.966089533077818     IErMin= 3 ErrMin= 3.44D-04
 ErrMax= 3.44D-04  0.00D+00 EMaxC= 1.00D-01 BMatC= 9.49D-07 BMatP= 1.04D-04
 IDIUse=3 WtCom= 9.97D-01 WtEn= 3.44D-03
 Large coefficients: NSaved=  3 BigCof=    0.00 CofMax=   10.00 Det= 1.79D-20
 Inversion failed.  Reducing to  2 matrices.
 Coeff-Com: -0.106D+00 0.111D+01
 Coeff-En:   0.000D+00 0.100D+01
 Coeff:     -0.105D+00 0.111D+01
 Gap=     1.376 Goal=   None    Shift=    0.000
 Gap=     1.268 Goal=   None    Shift=    0.000
 RMSDP=2.29D-04 MaxDP=1.08D-03 DE=-4.64D-05 OVMax= 0.00D+00

 Cycle   5  Pass 0  IDiag  1:
 E= 0.966089101898894     Delta-E=       -0.000000431179 Rises=F Damp=F
 DIIS: error= 2.69D-06 at cycle   5 NSaved=   3.
 NSaved= 3 IEnMin= 3 EnMin= 0.966089101898894     IErMin= 3 ErrMin= 2.69D-06
 ErrMax= 2.69D-06  0.00D+00 EMaxC= 1.00D-01 BMatC= 5.80D-11 BMatP= 9.49D-07
 IDIUse=1 WtCom= 1.00D+00 WtEn= 0.00D+00
 Large coefficients: NSaved=  3 BigCof=    0.00 CofMax=   10.00 Det=-7.82D-23
 Inversion failed.  Reducing to  2 matrices.
 Coeff-Com: -0.788D-02 0.101D+01
 Coeff:     -0.788D-02 0.101D+01
 Gap=     1.376 Goal=   None    Shift=    0.000
 Gap=     1.268 Goal=   None    Shift=    0.000
 RMSDP=1.80D-06 MaxDP=8.51D-06 DE=-4.31D-07 OVMax= 0.00D+00

 Initial convergence to 1.0D-05 achieved.  Increase integral accuracy.
 Cycle   6  Pass 1  IDiag  1:
 E= 0.966089525557788     Delta-E=        0.000000423659 Rises=F Damp=F
 DIIS: error= 1.08D-08 at cycle   1 NSaved=   1.
 NSaved= 1 IEnMin= 1 EnMin= 0.966089525557788     IErMin= 1 ErrMin= 1.08D-08
 ErrMax= 1.08D-08  0.00D+00 EMaxC= 1.00D-01 BMatC= 9.31D-16 BMatP= 9.31D-16
 IDIUse=1 WtCom= 1.00D+00 WtEn= 0.00D+00
 Coeff-Com:  0.100D+01
 Coeff:      0.100D+01
 Gap=     1.376 Goal=   None    Shift=    0.000
 Gap=     1.268 Goal=   None    Shift=    0.000
 RMSDP=1.80D-06 MaxDP=8.51D-06 DE= 4.24D-07 OVMax= 0.00D+00

 Cycle   7  Pass 1  IDiag  1:
 E= 0.966089525557793     Delta-E=        0.000000000000 Rises=F Damp=F
 DIIS: error= 1.43D-09 at cycle   2 NSaved=   2.
 NSaved= 2 IEnMin= 1 EnMin= 0.966089525557788     IErMin= 2 ErrMin= 1.43D-09
 ErrMax= 1.43D-09  0.00D+00 EMaxC= 1.00D-01 BMatC= 1.63D-17 BMatP= 9.31D-16
 IDIUse=1 WtCom= 1.00D+00 WtEn= 0.00D+00
 Coeff-Com: -0.153D+00 0.115D+01
 Coeff:     -0.153D+00 0.115D+01
 Gap=     1.376 Goal=   None    Shift=    0.000
 Gap=     1.268 Goal=   None    Shift=    0.000
 RMSDP=9.57D-10 MaxDP=4.51D-09 DE= 4.22D-15 OVMax= 0.00D+00

 SCF Done:  E(UPBE-PBE) =  0.966089525558     A.U. after    7 cycles
            NFock=  7  Conv=0.96D-09     -V/T= 0.6172
 <Sx>= 0.0000 <Sy>= 0.0000 <Sz>= 0.5000 <S**2>= 0.7500 S= 0.5000
 <L.S>=  0.00000000000
 KE= 2.523813315134D+00 PE=-2.948194595331D+00 EE= 1.390470805754D+00
 Annihilation of the first spin contaminant:
 S**2 before annihilation     0.7500,   after     0.7500
 Leave Link  502 at Wed Sep 30 15:58:59 2020, MaxMem=   134217728 cpu:         0.0
 (Enter /apps/gent/CO7/haswell-ib/software/Gaussian/g09_D.01-intel-2015a-amd64-gpfs/g09/l601.exe.bin)
 Copying SCF densities to generalized density rwf, IOpCl= 1 IROHF=0.

 **********************************************************************

            Population analysis using the SCF density.

 **********************************************************************

 Orbital symmetries:
 Alpha Orbitals:
       Occupied  (A1G) (A1G)
       Virtual   (T1U) (T1U) (T1U)
 Beta  Orbitals:
       Occupied  (A1G)
       Virtual   (A1G) (T1U) (T1U) (T1U)
 The electronic state is 2-A1G.
 Alpha  occ. eigenvalues --    0.68830   1.69442
 Alpha virt. eigenvalues --    3.07041   3.07041   3.07041
  Beta  occ. eigenvalues --    0.72992
  Beta virt. eigenvalues --    1.99802   3.20589   3.20589   3.20589
          Condensed to atoms (all electrons):
               1
     1  H    3.000000
          Atomic-Atomic Spin Densities.
               1
     1  H    1.000000
 Mulliken charges and spin densities:
               1          2
     1  H   -2.000000   1.000000
 Sum of Mulliken charges =  -2.00000   1.00000
 Mulliken charges and spin densities with hydrogens summed into heavy atoms:
               1          2
 Electronic spatial extent (au):  <R**2>=             11.9302
 Charge=             -2.0000 electrons
 Dipole moment (field-independent basis, Debye):
    X=              0.0000    Y=              0.0000    Z=              0.0000  Tot=              0.0000
 Quadrupole moment (field-independent basis, Debye-Ang):
   XX=             -5.3488   YY=             -5.3488   ZZ=             -5.3488
   XY=              0.0000   XZ=              0.0000   YZ=              0.0000
 Traceless Quadrupole moment (field-independent basis, Debye-Ang):
   XX=             -0.0000   YY=             -0.0000   ZZ=             -0.0000
   XY=              0.0000   XZ=              0.0000   YZ=              0.0000
 Octapole moment (field-independent basis, Debye-Ang**2):
  XXX=              0.0000  YYY=              0.0000  ZZZ=              0.0000  XYY=              0.0000
  XXY=              0.0000  XXZ=              0.0000  XZZ=              0.0000  YZZ=              0.0000
  YYZ=              0.0000  XYZ=              0.0000
 Hexadecapole moment (field-independent basis, Debye-Ang**3):
 XXXX=             -7.1972 YYYY=             -7.1972 ZZZZ=             -7.1972 XXXY=              0.0000
 XXXZ=              0.0000 YYYX=              0.0000 YYYZ=              0.0000 ZZZX=              0.0000
 ZZZY=              0.0000 XXYY=             -2.3991 XXZZ=             -2.3991 YYZZ=             -2.3991
 XXYZ=              0.0000 YYXZ=              0.0000 ZZXY=              0.0000
 N-N= 0.000000000000D+00 E-N=-2.948194593736D+00  KE= 2.523813315134D+00
 Symmetry AG   KE= 2.523813315134D+00
 Symmetry B1G  KE= 0.000000000000D+00
 Symmetry B2G  KE= 0.000000000000D+00
 Symmetry B3G  KE= 0.000000000000D+00
 Symmetry AU   KE= 0.000000000000D+00
 Symmetry B1U  KE= 0.000000000000D+00
 Symmetry B2U  KE= 0.000000000000D+00
 Symmetry B3U  KE= 0.000000000000D+00
                          Isotropic Fermi Contact Couplings
        Atom                 a.u.       MegaHertz       Gauss      10(-4) cm-1
     1  H(1)               1.35945    6076.55588    2168.26617    2026.92086
 --------------------------------------------------------
       Center         ----  Spin Dipole Couplings  ----
                      3XX-RR        3YY-RR        3ZZ-RR
 --------------------------------------------------------
     1   Atom        0.000000      0.000000      0.000000
 --------------------------------------------------------
                        XY            XZ            YZ
 --------------------------------------------------------
     1   Atom        0.000000      0.000000      0.000000
 --------------------------------------------------------


 ---------------------------------------------------------------------------------
              Anisotropic Spin Dipole Couplings in Principal Axis System
 ---------------------------------------------------------------------------------

       Atom             a.u.   MegaHertz   Gauss  10(-4) cm-1        Axes

              Baa     0.0000     0.000     0.000     0.000  1.0000  0.0000  0.0000
     1 H(1)   Bbb     0.0000     0.000     0.000     0.000  0.0000  1.0000  0.0000
              Bcc     0.0000     0.000     0.000     0.000  0.0000  0.0000  1.0000


 ---------------------------------------------------------------------------------

 No NMR shielding tensors so no spin-rotation constants.
 Leave Link  601 at Wed Sep 30 15:58:59 2020, MaxMem=   134217728 cpu:         0.1
 (Enter /apps/gent/CO7/haswell-ib/software/Gaussian/g09_D.01-intel-2015a-amd64-gpfs/g09/l9999.exe.bin)
 1\1\GINC-GLIGAR05\SP\UPBEPBE\6-31+G(d,p)\H1(2-,2)\VSC43080\30-Sep-2020
 \0\\#PBEPBE/6-31+g** scf=tight\\fubar\\-2,2\H,0,0.,0.,0.\\Version=ES64
 L-G09RevD.01\State=2-A1G\HF=0.9660895\S2=0.75\S2-1=0.\S2A=0.75\RMSD=9.
 575e-10\Dipole=0.,0.,0.\Quadrupole=0.,0.,0.,0.,0.,0.\PG=OH [O(H1)]\\@


 GARLIC THEN HAVE POWER TO SAVE FROM DEATH
 BEAR WITH IT THOUGH IT MAKETH UNSAVORY BREATH,
 AND SCORN NOT GARLIC LIKE SOME THAT THINK
 IT ONLY MAKETH MEN WINK AND DRINK AND STINK.
   --  SIR JOHN HARRINGTON,
       "THE ENGLISHMAN'S DOCTOR", 1609
 Job cpu time:       0 days  0 hours  0 minutes  0.5 seconds.
 File lengths (MBytes):  RWF=    136 Int=      0 D2E=      0 Chk=      4 Scr=      4
 Normal termination of Gaussian 09 at Wed Sep 30 15:59:00 2020.
