fubar
SP        RPBE0DH-FC                                                  6-311+G(d,p)
Number of atoms                            I               17
Info1-9                                    I   N=           9
          27          26           0           0           0         110
           1           2       -7801
Full Title                                 C   N=           1
fubar
Route                                      C   N=           5
#PBE0/6-311+G(d,p) scf=tight maxdisk=10GB Symmetry=none
Charge                                     I                0
Multiplicity                               I                1
Number of electrons                        I               42
Number of alpha electrons                  I               21
Number of beta electrons                   I               21
Number of basis functions                  I              182
Number of independent functions            I              182
Number of point charges in /Mol/           I                0
Number of translation vectors              I                0
Atomic numbers                             I   N=          17
           6           6           6           6           6           1
           1           1           1           1           1           1
           1           1           1           1           1
Nuclear charges                            R   N=          17
  6.00000000E+00  6.00000000E+00  6.00000000E+00  6.00000000E+00  6.00000000E+00
  1.00000000E+00  1.00000000E+00  1.00000000E+00  1.00000000E+00  1.00000000E+00
  1.00000000E+00  1.00000000E+00  1.00000000E+00  1.00000000E+00  1.00000000E+00
  1.00000000E+00  1.00000000E+00
Current cartesian coordinates              R   N=          51
  0.00000000E+00  0.00000000E+00  0.00000000E+00  1.67654990E+00  1.67654990E+00
  1.67654990E+00 -1.67654990E+00 -1.67654990E+00  1.67654990E+00 -1.67654990E+00
  1.67654990E+00 -1.67654990E+00  1.67654990E+00 -1.67654990E+00 -1.67654990E+00
  2.89154364E+00  5.34038493E-01  2.89154364E+00  2.89154364E+00  2.89154364E+00
  5.34038493E-01  5.34038493E-01  2.89154364E+00  2.89154364E+00 -2.89154364E+00
 -2.89154364E+00  5.34038493E-01 -5.34038493E-01 -2.89154364E+00  2.89154364E+00
 -2.89154364E+00 -5.34038493E-01  2.89154364E+00 -2.89154364E+00  5.34038493E-01
 -2.89154364E+00 -2.89154364E+00  2.89154364E+00 -5.34038493E-01 -5.34038493E-01
  2.89154364E+00 -2.89154364E+00  2.89154364E+00 -2.89154364E+00 -5.34038493E-01
  5.34038493E-01 -2.89154364E+00 -2.89154364E+00  2.89154364E+00 -5.34038493E-01
 -2.89154364E+00
Number of symbols in /Mol/                 I                0
Int Atom Types                             I   N=          17
           0           0           0           0           0           0
           0           0           0           0           0           0
           0           0           0           0           0
Force Field                                I                0
Atom Types                                 C   N=          17




MM charges                                 R   N=          17
  0.00000000E+00  0.00000000E+00  0.00000000E+00  0.00000000E+00  0.00000000E+00
  0.00000000E+00  0.00000000E+00  0.00000000E+00  0.00000000E+00  0.00000000E+00
  0.00000000E+00  0.00000000E+00  0.00000000E+00  0.00000000E+00  0.00000000E+00
  0.00000000E+00  0.00000000E+00
Integer atomic weights                     I   N=          17
          12          12          12          12          12           1
           1           1           1           1           1           1
           1           1           1           1           1
Real atomic weights                        R   N=          17
  1.20000000E+01  1.20000000E+01  1.20000000E+01  1.20000000E+01  1.20000000E+01
  1.00782504E+00  1.00782504E+00  1.00782504E+00  1.00782504E+00  1.00782504E+00
  1.00782504E+00  1.00782504E+00  1.00782504E+00  1.00782504E+00  1.00782504E+00
  1.00782504E+00  1.00782504E+00
Atom fragment info                         I   N=          17
           0           0           0           0           0           0
           0           0           0           0           0           0
           0           0           0           0           0
Atom residue num                           I   N=          17
           0           0           0           0           0           0
           0           0           0           0           0           0
           0           0           0           0           0
Nuclear spins                              I   N=          17
           0           0           0           0           0           1
           1           1           1           1           1           1
           1           1           1           1           1
Nuclear ZEff                               R   N=          17
 -3.60000000E+00 -3.60000000E+00 -3.60000000E+00 -3.60000000E+00 -3.60000000E+00
 -1.00000000E+00 -1.00000000E+00 -1.00000000E+00 -1.00000000E+00 -1.00000000E+00
 -1.00000000E+00 -1.00000000E+00 -1.00000000E+00 -1.00000000E+00 -1.00000000E+00
 -1.00000000E+00 -1.00000000E+00
Nuclear ZNuc                               R   N=          17
  6.00000000E+00  6.00000000E+00  6.00000000E+00  6.00000000E+00  6.00000000E+00
  1.00000000E+00  1.00000000E+00  1.00000000E+00  1.00000000E+00  1.00000000E+00
  1.00000000E+00  1.00000000E+00  1.00000000E+00  1.00000000E+00  1.00000000E+00
  1.00000000E+00  1.00000000E+00
Nuclear QMom                               R   N=          17
  0.00000000E+00  0.00000000E+00  0.00000000E+00  0.00000000E+00  0.00000000E+00
  0.00000000E+00  0.00000000E+00  0.00000000E+00  0.00000000E+00  0.00000000E+00
  0.00000000E+00  0.00000000E+00  0.00000000E+00  0.00000000E+00  0.00000000E+00
  0.00000000E+00  0.00000000E+00
Nuclear GFac                               R   N=          17
  0.00000000E+00  0.00000000E+00  0.00000000E+00  0.00000000E+00  0.00000000E+00
  2.79284600E+00  2.79284600E+00  2.79284600E+00  2.79284600E+00  2.79284600E+00
  2.79284600E+00  2.79284600E+00  2.79284600E+00  2.79284600E+00  2.79284600E+00
  2.79284600E+00  2.79284600E+00
MicOpt                                     I   N=          17
          -1          -1          -1          -1          -1          -1
          -1          -1          -1          -1          -1          -1
          -1          -1          -1          -1          -1
Number of residues                         I                0
Number of secondary structures             I                0
Number of contracted shells                I               78
Number of primitive shells                 I              137
Pure/Cartesian d shells                    I                0
Pure/Cartesian f shells                    I                0
Highest angular momentum                   I                2
Largest degree of contraction              I                6
Shell types                                I   N=          78
           0          -1          -1          -1          -1          -2
           0          -1          -1          -1          -1          -2
           0          -1          -1          -1          -1          -2
           0          -1          -1          -1          -1          -2
           0          -1          -1          -1          -1          -2
           0           0           0           1           0           0
           0           1           0           0           0           1
           0           0           0           1           0           0
           0           1           0           0           0           1
           0           0           0           1           0           0
           0           1           0           0           0           1
           0           0           0           1           0           0
           0           1           0           0           0           1
Number of primitives per shell             I   N=          78
           6           3           1           1           1           1
           6           3           1           1           1           1
           6           3           1           1           1           1
           6           3           1           1           1           1
           6           3           1           1           1           1
           3           1           1           1           3           1
           1           1           3           1           1           1
           3           1           1           1           3           1
           1           1           3           1           1           1
           3           1           1           1           3           1
           1           1           3           1           1           1
           3           1           1           1           3           1
           1           1           3           1           1           1
Shell to atom map                          I   N=          78
           1           1           1           1           1           1
           2           2           2           2           2           2
           3           3           3           3           3           3
           4           4           4           4           4           4
           5           5           5           5           5           5
           6           6           6           6           7           7
           7           7           8           8           8           8
           9           9           9           9          10          10
          10          10          11          11          11          11
          12          12          12          12          13          13
          13          13          14          14          14          14
          15          15          15          15          16          16
          16          16          17          17          17          17
Primitive exponents                        R   N=         137
  4.56324000E+03  6.82024000E+02  1.54973000E+02  4.44553000E+01  1.30290000E+01
  1.82773000E+00  2.09642000E+01  4.80331000E+00  1.45933000E+00  4.83456000E-01
  1.45585000E-01  4.38000000E-02  6.26000000E-01  4.56324000E+03  6.82024000E+02
  1.54973000E+02  4.44553000E+01  1.30290000E+01  1.82773000E+00  2.09642000E+01
  4.80331000E+00  1.45933000E+00  4.83456000E-01  1.45585000E-01  4.38000000E-02
  6.26000000E-01  4.56324000E+03  6.82024000E+02  1.54973000E+02  4.44553000E+01
  1.30290000E+01  1.82773000E+00  2.09642000E+01  4.80331000E+00  1.45933000E+00
  4.83456000E-01  1.45585000E-01  4.38000000E-02  6.26000000E-01  4.56324000E+03
  6.82024000E+02  1.54973000E+02  4.44553000E+01  1.30290000E+01  1.82773000E+00
  2.09642000E+01  4.80331000E+00  1.45933000E+00  4.83456000E-01  1.45585000E-01
  4.38000000E-02  6.26000000E-01  4.56324000E+03  6.82024000E+02  1.54973000E+02
  4.44553000E+01  1.30290000E+01  1.82773000E+00  2.09642000E+01  4.80331000E+00
  1.45933000E+00  4.83456000E-01  1.45585000E-01  4.38000000E-02  6.26000000E-01
  3.38650000E+01  5.09479000E+00  1.15879000E+00  3.25840000E-01  1.02741000E-01
  7.50000000E-01  3.38650000E+01  5.09479000E+00  1.15879000E+00  3.25840000E-01
  1.02741000E-01  7.50000000E-01  3.38650000E+01  5.09479000E+00  1.15879000E+00
  3.25840000E-01  1.02741000E-01  7.50000000E-01  3.38650000E+01  5.09479000E+00
  1.15879000E+00  3.25840000E-01  1.02741000E-01  7.50000000E-01  3.38650000E+01
  5.09479000E+00  1.15879000E+00  3.25840000E-01  1.02741000E-01  7.50000000E-01
  3.38650000E+01  5.09479000E+00  1.15879000E+00  3.25840000E-01  1.02741000E-01
  7.50000000E-01  3.38650000E+01  5.09479000E+00  1.15879000E+00  3.25840000E-01
  1.02741000E-01  7.50000000E-01  3.38650000E+01  5.09479000E+00  1.15879000E+00
  3.25840000E-01  1.02741000E-01  7.50000000E-01  3.38650000E+01  5.09479000E+00
  1.15879000E+00  3.25840000E-01  1.02741000E-01  7.50000000E-01  3.38650000E+01
  5.09479000E+00  1.15879000E+00  3.25840000E-01  1.02741000E-01  7.50000000E-01
  3.38650000E+01  5.09479000E+00  1.15879000E+00  3.25840000E-01  1.02741000E-01
  7.50000000E-01  3.38650000E+01  5.09479000E+00  1.15879000E+00  3.25840000E-01
  1.02741000E-01  7.50000000E-01
Contraction coefficients                   R   N=         137
  1.96665025E-03  1.52306019E-02  7.61269097E-02  2.60801033E-01  6.16462078E-01
  2.21006028E-01  1.14660081E-01  9.19999648E-01 -3.03068213E-03  1.00000000E+00
  1.00000000E+00  1.00000000E+00  1.00000000E+00  1.96665025E-03  1.52306019E-02
  7.61269097E-02  2.60801033E-01  6.16462078E-01  2.21006028E-01  1.14660081E-01
  9.19999648E-01 -3.03068213E-03  1.00000000E+00  1.00000000E+00  1.00000000E+00
  1.00000000E+00  1.96665025E-03  1.52306019E-02  7.61269097E-02  2.60801033E-01
  6.16462078E-01  2.21006028E-01  1.14660081E-01  9.19999648E-01 -3.03068213E-03
  1.00000000E+00  1.00000000E+00  1.00000000E+00  1.00000000E+00  1.96665025E-03
  1.52306019E-02  7.61269097E-02  2.60801033E-01  6.16462078E-01  2.21006028E-01
  1.14660081E-01  9.19999648E-01 -3.03068213E-03  1.00000000E+00  1.00000000E+00
  1.00000000E+00  1.00000000E+00  1.96665025E-03  1.52306019E-02  7.61269097E-02
  2.60801033E-01  6.16462078E-01  2.21006028E-01  1.14660081E-01  9.19999648E-01
 -3.03068213E-03  1.00000000E+00  1.00000000E+00  1.00000000E+00  1.00000000E+00
  2.54938145E-02  1.90373109E-01  8.52161486E-01  1.00000000E+00  1.00000000E+00
  1.00000000E+00  2.54938145E-02  1.90373109E-01  8.52161486E-01  1.00000000E+00
  1.00000000E+00  1.00000000E+00  2.54938145E-02  1.90373109E-01  8.52161486E-01
  1.00000000E+00  1.00000000E+00  1.00000000E+00  2.54938145E-02  1.90373109E-01
  8.52161486E-01  1.00000000E+00  1.00000000E+00  1.00000000E+00  2.54938145E-02
  1.90373109E-01  8.52161486E-01  1.00000000E+00  1.00000000E+00  1.00000000E+00
  2.54938145E-02  1.90373109E-01  8.52161486E-01  1.00000000E+00  1.00000000E+00
  1.00000000E+00  2.54938145E-02  1.90373109E-01  8.52161486E-01  1.00000000E+00
  1.00000000E+00  1.00000000E+00  2.54938145E-02  1.90373109E-01  8.52161486E-01
  1.00000000E+00  1.00000000E+00  1.00000000E+00  2.54938145E-02  1.90373109E-01
  8.52161486E-01  1.00000000E+00  1.00000000E+00  1.00000000E+00  2.54938145E-02
  1.90373109E-01  8.52161486E-01  1.00000000E+00  1.00000000E+00  1.00000000E+00
  2.54938145E-02  1.90373109E-01  8.52161486E-01  1.00000000E+00  1.00000000E+00
  1.00000000E+00  2.54938145E-02  1.90373109E-01  8.52161486E-01  1.00000000E+00
  1.00000000E+00  1.00000000E+00
P(S=P) Contraction coefficients            R   N=         137
  0.00000000E+00  0.00000000E+00  0.00000000E+00  0.00000000E+00  0.00000000E+00
  0.00000000E+00  4.02486927E-02  2.37593957E-01  8.15853851E-01  1.00000000E+00
  1.00000000E+00  1.00000000E+00  0.00000000E+00  0.00000000E+00  0.00000000E+00
  0.00000000E+00  0.00000000E+00  0.00000000E+00  0.00000000E+00  4.02486927E-02
  2.37593957E-01  8.15853851E-01  1.00000000E+00  1.00000000E+00  1.00000000E+00
  0.00000000E+00  0.00000000E+00  0.00000000E+00  0.00000000E+00  0.00000000E+00
  0.00000000E+00  0.00000000E+00  4.02486927E-02  2.37593957E-01  8.15853851E-01
  1.00000000E+00  1.00000000E+00  1.00000000E+00  0.00000000E+00  0.00000000E+00
  0.00000000E+00  0.00000000E+00  0.00000000E+00  0.00000000E+00  0.00000000E+00
  4.02486927E-02  2.37593957E-01  8.15853851E-01  1.00000000E+00  1.00000000E+00
  1.00000000E+00  0.00000000E+00  0.00000000E+00  0.00000000E+00  0.00000000E+00
  0.00000000E+00  0.00000000E+00  0.00000000E+00  4.02486927E-02  2.37593957E-01
  8.15853851E-01  1.00000000E+00  1.00000000E+00  1.00000000E+00  0.00000000E+00
  0.00000000E+00  0.00000000E+00  0.00000000E+00  0.00000000E+00  0.00000000E+00
  0.00000000E+00  0.00000000E+00  0.00000000E+00  0.00000000E+00  0.00000000E+00
  0.00000000E+00  0.00000000E+00  0.00000000E+00  0.00000000E+00  0.00000000E+00
  0.00000000E+00  0.00000000E+00  0.00000000E+00  0.00000000E+00  0.00000000E+00
  0.00000000E+00  0.00000000E+00  0.00000000E+00  0.00000000E+00  0.00000000E+00
  0.00000000E+00  0.00000000E+00  0.00000000E+00  0.00000000E+00  0.00000000E+00
  0.00000000E+00  0.00000000E+00  0.00000000E+00  0.00000000E+00  0.00000000E+00
  0.00000000E+00  0.00000000E+00  0.00000000E+00  0.00000000E+00  0.00000000E+00
  0.00000000E+00  0.00000000E+00  0.00000000E+00  0.00000000E+00  0.00000000E+00
  0.00000000E+00  0.00000000E+00  0.00000000E+00  0.00000000E+00  0.00000000E+00
  0.00000000E+00  0.00000000E+00  0.00000000E+00  0.00000000E+00  0.00000000E+00
  0.00000000E+00  0.00000000E+00  0.00000000E+00  0.00000000E+00  0.00000000E+00
  0.00000000E+00  0.00000000E+00  0.00000000E+00  0.00000000E+00  0.00000000E+00
  0.00000000E+00  0.00000000E+00  0.00000000E+00  0.00000000E+00  0.00000000E+00
  0.00000000E+00  0.00000000E+00
Coordinates of each shell                  R   N=         234
  0.00000000E+00  0.00000000E+00  0.00000000E+00  0.00000000E+00  0.00000000E+00
  0.00000000E+00  0.00000000E+00  0.00000000E+00  0.00000000E+00  0.00000000E+00
  0.00000000E+00  0.00000000E+00  0.00000000E+00  0.00000000E+00  0.00000000E+00
  0.00000000E+00  0.00000000E+00  0.00000000E+00  1.67654990E+00  1.67654990E+00
  1.67654990E+00  1.67654990E+00  1.67654990E+00  1.67654990E+00  1.67654990E+00
  1.67654990E+00  1.67654990E+00  1.67654990E+00  1.67654990E+00  1.67654990E+00
  1.67654990E+00  1.67654990E+00  1.67654990E+00  1.67654990E+00  1.67654990E+00
  1.67654990E+00 -1.67654990E+00 -1.67654990E+00  1.67654990E+00 -1.67654990E+00
 -1.67654990E+00  1.67654990E+00 -1.67654990E+00 -1.67654990E+00  1.67654990E+00
 -1.67654990E+00 -1.67654990E+00  1.67654990E+00 -1.67654990E+00 -1.67654990E+00
  1.67654990E+00 -1.67654990E+00 -1.67654990E+00  1.67654990E+00 -1.67654990E+00
  1.67654990E+00 -1.67654990E+00 -1.67654990E+00  1.67654990E+00 -1.67654990E+00
 -1.67654990E+00  1.67654990E+00 -1.67654990E+00 -1.67654990E+00  1.67654990E+00
 -1.67654990E+00 -1.67654990E+00  1.67654990E+00 -1.67654990E+00 -1.67654990E+00
  1.67654990E+00 -1.67654990E+00  1.67654990E+00 -1.67654990E+00 -1.67654990E+00
  1.67654990E+00 -1.67654990E+00 -1.67654990E+00  1.67654990E+00 -1.67654990E+00
 -1.67654990E+00  1.67654990E+00 -1.67654990E+00 -1.67654990E+00  1.67654990E+00
 -1.67654990E+00 -1.67654990E+00  1.67654990E+00 -1.67654990E+00 -1.67654990E+00
  2.89154364E+00  5.34038493E-01  2.89154364E+00  2.89154364E+00  5.34038493E-01
  2.89154364E+00  2.89154364E+00  5.34038493E-01  2.89154364E+00  2.89154364E+00
  5.34038493E-01  2.89154364E+00  2.89154364E+00  2.89154364E+00  5.34038493E-01
  2.89154364E+00  2.89154364E+00  5.34038493E-01  2.89154364E+00  2.89154364E+00
  5.34038493E-01  2.89154364E+00  2.89154364E+00  5.34038493E-01  5.34038493E-01
  2.89154364E+00  2.89154364E+00  5.34038493E-01  2.89154364E+00  2.89154364E+00
  5.34038493E-01  2.89154364E+00  2.89154364E+00  5.34038493E-01  2.89154364E+00
  2.89154364E+00 -2.89154364E+00 -2.89154364E+00  5.34038493E-01 -2.89154364E+00
 -2.89154364E+00  5.34038493E-01 -2.89154364E+00 -2.89154364E+00  5.34038493E-01
 -2.89154364E+00 -2.89154364E+00  5.34038493E-01 -5.34038493E-01 -2.89154364E+00
  2.89154364E+00 -5.34038493E-01 -2.89154364E+00  2.89154364E+00 -5.34038493E-01
 -2.89154364E+00  2.89154364E+00 -5.34038493E-01 -2.89154364E+00  2.89154364E+00
 -2.89154364E+00 -5.34038493E-01  2.89154364E+00 -2.89154364E+00 -5.34038493E-01
  2.89154364E+00 -2.89154364E+00 -5.34038493E-01  2.89154364E+00 -2.89154364E+00
 -5.34038493E-01  2.89154364E+00 -2.89154364E+00  5.34038493E-01 -2.89154364E+00
 -2.89154364E+00  5.34038493E-01 -2.89154364E+00 -2.89154364E+00  5.34038493E-01
 -2.89154364E+00 -2.89154364E+00  5.34038493E-01 -2.89154364E+00 -2.89154364E+00
  2.89154364E+00 -5.34038493E-01 -2.89154364E+00  2.89154364E+00 -5.34038493E-01
 -2.89154364E+00  2.89154364E+00 -5.34038493E-01 -2.89154364E+00  2.89154364E+00
 -5.34038493E-01 -5.34038493E-01  2.89154364E+00 -2.89154364E+00 -5.34038493E-01
  2.89154364E+00 -2.89154364E+00 -5.34038493E-01  2.89154364E+00 -2.89154364E+00
 -5.34038493E-01  2.89154364E+00 -2.89154364E+00  2.89154364E+00 -2.89154364E+00
 -5.34038493E-01  2.89154364E+00 -2.89154364E+00 -5.34038493E-01  2.89154364E+00
 -2.89154364E+00 -5.34038493E-01  2.89154364E+00 -2.89154364E+00 -5.34038493E-01
  5.34038493E-01 -2.89154364E+00 -2.89154364E+00  5.34038493E-01 -2.89154364E+00
 -2.89154364E+00  5.34038493E-01 -2.89154364E+00 -2.89154364E+00  5.34038493E-01
 -2.89154364E+00 -2.89154364E+00  2.89154364E+00 -5.34038493E-01 -2.89154364E+00
  2.89154364E+00 -5.34038493E-01 -2.89154364E+00  2.89154364E+00 -5.34038493E-01
 -2.89154364E+00  2.89154364E+00 -5.34038493E-01 -2.89154364E+00
Num ILSW                                   I              100
ILSW                                       I   N=         100
           0           0           0           0           2           0
           0           0           0           0        1009  1342177280
           5           0           0           0           0           0
           0           0           0           0           0           0
           1           1           0           0           0           0
           0           0      100000           0          -1           0
           0           0           0           0           0           0
           0           0           0           1           0           0
           0 -2000000000           1           0           0           0
           0           0           4          52           0           0
           0           0          78           0           0           0
           0           0           0          17           0           1
           0           0           0           0           0           0
           0           0           0           0           0           0
           0           0           0           0           0           0
           0           0           0           0           0           0
           0           0           0           0
Num RLSW                                   I               52
RLSW                                       R   N=          52
  5.00000000E-01  5.00000000E-01  8.75000000E-01  8.75000000E-01  5.00000000E-01
  0.00000000E+00  0.00000000E+00  1.00000000E+00  0.00000000E+00  0.00000000E+00
  0.00000000E+00  0.00000000E+00  1.00000000E+00  0.00000000E+00  0.00000000E+00
  0.00000000E+00  0.00000000E+00  1.00000000E+00  0.00000000E+00  0.00000000E+00
  0.00000000E+00  0.00000000E+00  1.00000000E+00  0.00000000E+00  0.00000000E+00
  0.00000000E+00  0.00000000E+00  1.00000000E+00  0.00000000E+00  0.00000000E+00
  0.00000000E+00  0.00000000E+00  1.00000000E+00  0.00000000E+00  0.00000000E+00
  0.00000000E+00  0.00000000E+00  0.00000000E+00  1.25000000E-01  1.25000000E-01
  0.00000000E+00  1.00000000E+00  0.00000000E+00  0.00000000E+00  0.00000000E+00
  0.00000000E+00  0.00000000E+00  0.00000000E+00  0.00000000E+00  0.00000000E+00
  0.00000000E+00  0.00000000E+00
MxBond                                     I                4
NBond                                      I   N=          17
           4           4           4           4           4           1
           1           1           1           1           1           1
           1           1           1           1           1
IBond                                      I   N=          68
           2           3           4           5           1           6
           7           8           1           9          10          11
           1          12          13          14           1          15
          16          17           2           0           0           0
           2           0           0           0           2           0
           0           0           3           0           0           0
           3           0           0           0           3           0
           0           0           4           0           0           0
           4           0           0           0           4           0
           0           0           5           0           0           0
           5           0           0           0           5           0
           0           0
RBond                                      R   N=          68
  1.00000000E+00  1.00000000E+00  1.00000000E+00  1.00000000E+00  1.00000000E+00
  1.00000000E+00  1.00000000E+00  1.00000000E+00  1.00000000E+00  1.00000000E+00
  1.00000000E+00  1.00000000E+00  1.00000000E+00  1.00000000E+00  1.00000000E+00
  1.00000000E+00  1.00000000E+00  1.00000000E+00  1.00000000E+00  1.00000000E+00
  1.00000000E+00  0.00000000E+00  0.00000000E+00  0.00000000E+00  1.00000000E+00
  0.00000000E+00  0.00000000E+00  0.00000000E+00  1.00000000E+00  0.00000000E+00
  0.00000000E+00  0.00000000E+00  1.00000000E+00  0.00000000E+00  0.00000000E+00
  0.00000000E+00  1.00000000E+00  0.00000000E+00  0.00000000E+00  0.00000000E+00
  1.00000000E+00  0.00000000E+00  0.00000000E+00  0.00000000E+00  1.00000000E+00
  0.00000000E+00  0.00000000E+00  0.00000000E+00  1.00000000E+00  0.00000000E+00
  0.00000000E+00  0.00000000E+00  1.00000000E+00  0.00000000E+00  0.00000000E+00
  0.00000000E+00  1.00000000E+00  0.00000000E+00  0.00000000E+00  0.00000000E+00
  1.00000000E+00  0.00000000E+00  0.00000000E+00  0.00000000E+00  1.00000000E+00
  0.00000000E+00  0.00000000E+00  0.00000000E+00
Virial Ratio                               R      2.005287885012066E+00
SCF Energy                                 R     -1.974515462409990E+02
MP2 Energy                                 R     -1.975716948337561E+02
Total Energy                               R     -1.975716948337561E+02
Post-SCF wavefunction norm                 R      1.183861798629738E+00
RMS Density                                R      5.128046210324523E-09
Job Status                                 I                1
Nuclear derivative order                   I                0
External E-field                           R   N=          35
  0.00000000E+00  0.00000000E+00  0.00000000E+00  0.00000000E+00  0.00000000E+00
  0.00000000E+00  0.00000000E+00  0.00000000E+00  0.00000000E+00  0.00000000E+00
  0.00000000E+00  0.00000000E+00  0.00000000E+00  0.00000000E+00  0.00000000E+00
  0.00000000E+00  0.00000000E+00  0.00000000E+00  0.00000000E+00  0.00000000E+00
  0.00000000E+00  0.00000000E+00  0.00000000E+00  0.00000000E+00  0.00000000E+00
  0.00000000E+00  0.00000000E+00  0.00000000E+00  0.00000000E+00  0.00000000E+00
  0.00000000E+00  0.00000000E+00  0.00000000E+00  0.00000000E+00  0.00000000E+00
IOpCl                                      I                0
IROHF                                      I                0
Alpha Orbital Energies                     R   N=         182
 -1.05712969E+01 -1.05406745E+01 -1.05406745E+01 -1.05406745E+01 -1.05406558E+01
 -9.38327267E-01 -7.85860913E-01 -7.85860913E-01 -7.85860913E-01 -6.16530206E-01
 -5.17655004E-01 -5.17655004E-01 -5.17655004E-01 -4.64524006E-01 -4.64524006E-01
 -4.24229988E-01 -4.24229988E-01 -4.24229988E-01 -3.76720606E-01 -3.76720606E-01
 -3.76720606E-01  3.22583720E-02  5.58805281E-02  5.58805281E-02  5.58805281E-02
  8.38014131E-02  8.38014131E-02  8.38014131E-02  9.65658849E-02  9.71299270E-02
  9.71299270E-02  1.29269714E-01  1.29269715E-01  1.29269715E-01  1.32157603E-01
  1.32157603E-01  1.32157603E-01  1.94249999E-01  1.94249999E-01  1.94249999E-01
  2.19556442E-01  2.19556442E-01  2.26526040E-01  2.70246162E-01  2.70246162E-01
  2.70246162E-01  2.78382802E-01  2.91535076E-01  2.91535076E-01  2.91535076E-01
  3.04077339E-01  3.04077339E-01  3.04077339E-01  3.45538660E-01  3.45538660E-01
  3.45538660E-01  4.20148815E-01  4.20148815E-01  4.83769909E-01  4.83769909E-01
  4.83769909E-01  4.97033266E-01  5.55090879E-01  5.55090879E-01  5.55090879E-01
  6.01615584E-01  6.01615584E-01  6.01615584E-01  6.74554782E-01  7.17829249E-01
  7.17829249E-01  7.17829249E-01  7.27741278E-01  7.27741278E-01  7.27741278E-01
  7.31750726E-01  7.31750726E-01  7.64700243E-01  7.64700243E-01  7.64700243E-01
  8.29557917E-01  8.45936971E-01  8.45936971E-01  8.45936971E-01  8.68135687E-01
  1.03762393E+00  1.03762393E+00  1.11257323E+00  1.11257323E+00  1.11257323E+00
  1.18179398E+00  1.23732065E+00  1.23732065E+00  1.23732065E+00  1.47645972E+00
  1.47645972E+00  1.53968529E+00  1.53968529E+00  1.53968529E+00  1.55383435E+00
  1.55383435E+00  1.55383435E+00  1.56364161E+00  1.63885124E+00  1.63885124E+00
  1.63885124E+00  1.67809351E+00  1.67809351E+00  1.67809351E+00  1.74543612E+00
  1.74543612E+00  1.74543612E+00  1.75328724E+00  1.75328724E+00  1.83020415E+00
  1.83020415E+00  1.83020415E+00  1.83690585E+00  1.92325645E+00  1.92325645E+00
  1.92325645E+00  2.09295708E+00  2.09295708E+00  2.10491056E+00  2.10491056E+00
  2.10491056E+00  2.20859452E+00  2.20859452E+00  2.20859452E+00  2.31532329E+00
  2.31532329E+00  2.31532329E+00  2.33093064E+00  2.51334645E+00  2.51334645E+00
  2.53501094E+00  2.53501094E+00  2.53501094E+00  2.61685126E+00  2.65001572E+00
  2.65001572E+00  2.65001572E+00  2.65116287E+00  2.65116287E+00  2.67488138E+00
  2.67488138E+00  2.67488138E+00  2.69624486E+00  2.69624486E+00  2.69624486E+00
  2.82527271E+00  2.82527271E+00  2.82527271E+00  2.86610364E+00  2.86610364E+00
  2.86610364E+00  2.94048920E+00  2.94048920E+00  2.96916534E+00  3.21941023E+00
  3.21941023E+00  3.21941023E+00  3.33468426E+00  3.33468426E+00  3.33468426E+00
  3.81585616E+00  3.92584774E+00  3.92584774E+00  3.92584774E+00  3.95365002E+00
  3.95365002E+00  4.01194311E+00  4.01194311E+00  4.01194311E+00  4.46266379E+00
  4.46266379E+00  4.46266379E+00  2.42452413E+01  2.44114661E+01  2.44429134E+01
  2.44429134E+01  2.44429134E+01
Alpha MO coefficients                      R   N=       33124
  5.63417159E-01  4.64483421E-01 -1.22328846E-15 -3.25026256E-15 -1.83821118E-15
  1.26456403E-02  9.25798562E-15  1.62812884E-14  7.85311412E-15 -1.66539437E-02
 -2.54375937E-14 -1.33818213E-13 -4.86953323E-14  8.91903471E-03  5.43495745E-13