fubar
SP        RHF                                                         6-31G(d)
Number of atoms                            I                2
Info1-9                                    I   N=           9
          12          11           0           0           0         110
           1           1           2
Full Title                                 C   N=           1
fubar
Route                                      C   N=           5
#HF/6-31(d) scf=tight maxdisk=10GB Symmetry=none Polar
Charge                                     I               -1
Multiplicity                               I                1
Number of electrons                        I               26
Number of alpha electrons                  I               13
Number of beta electrons                   I               13
Number of basis functions                  I               34
Number of independent functions            I               34
Number of point charges in /Mol/           I                0
Number of translation vectors              I                0
Atomic numbers                             I   N=           2
          17           8
Nuclear charges                            R   N=           2
  1.70000000E+01  8.00000000E+00
Current cartesian coordinates              R   N=           6
  0.00000000E+00  0.00000000E+00  3.27489537E+00  0.00000000E+00  0.00000000E+00
  0.00000000E+00
Number of symbols in /Mol/                 I                0
Int Atom Types                             I   N=           2
           0           0
Force Field                                I                0
Atom Types                                 C   N=           2

MM charges                                 R   N=           2
  0.00000000E+00  0.00000000E+00
Integer atomic weights                     I   N=           2
          35          16
Real atomic weights                        R   N=           2
  3.49688527E+01  1.59949146E+01
Atom fragment info                         I   N=           2
           0           0
Atom residue num                           I   N=           2
           0           0
Nuclear spins                              I   N=           2
           3           0
Nuclear ZEff                               R   N=           2
 -1.42400000E+01 -5.60000000E+00
Nuclear ZNuc                               R   N=           2
  1.70000000E+01  8.00000000E+00
Nuclear QMom                               R   N=           2
 -8.16500000E+00  0.00000000E+00
Nuclear GFac                               R   N=           2
  8.21874000E-01  0.00000000E+00
MicOpt                                     I   N=           2
          -1          -1
Number of residues                         I                0
Number of secondary structures             I                0
Number of contracted shells                I                9
Number of primitive shells                 I               28
Pure/Cartesian d shells                    I                1
Pure/Cartesian f shells                    I                0
Highest angular momentum                   I                2
Largest degree of contraction              I                6
Shell types                                I   N=           9
           0          -1          -1          -1           2           0
          -1          -1           2
Number of primitives per shell             I   N=           9
           6           6           3           1           1           6
           3           1           1
Shell to atom map                          I   N=           9
           1           1           1           1           1           2
           2           2           2
Primitive exponents                        R   N=          28
  2.51801000E+04  3.78035000E+03  8.60474000E+02  2.42145000E+02  7.73349000E+01
  2.62470000E+01  4.91765000E+02  1.16984000E+02  3.74153000E+01  1.37834000E+01
  5.45215000E+00  2.22588000E+00  3.18649000E+00  1.14427000E+00  4.20377000E-01
  1.42657000E-01  7.50000000E-01  5.48467166E+03  8.25234946E+02  1.88046958E+02
  5.29645000E+01  1.68975704E+01  5.79963534E+00  1.55396162E+01  3.59993359E+00
  1.01376175E+00  2.70005823E-01  8.00000000E-01
Contraction coefficients                   R   N=          28
  1.83295985E-03  1.40341988E-02  6.90973943E-02  2.37451980E-01  4.83033960E-01
  3.39855972E-01 -2.29739142E-03 -3.07137189E-02 -1.12528069E-01  4.50163278E-02
  5.89353363E-01  4.65206287E-01 -2.51828028E-01  6.15892514E-02  1.06018433E+00
  1.00000000E+00  1.00000000E+00  1.83107443E-03  1.39501722E-02  6.84450781E-02
  2.32714336E-01  4.70192898E-01  3.58520853E-01 -1.10777550E-01 -1.48026263E-01
  1.13076702E+00  1.00000000E+00  1.00000000E+00
P(S=P) Contraction coefficients            R   N=          28
  0.00000000E+00  0.00000000E+00  0.00000000E+00  0.00000000E+00  0.00000000E+00
  0.00000000E+00  3.98940088E-03  3.03177067E-02  1.29880029E-01  3.27951072E-01
  4.53527100E-01  2.52154056E-01 -1.42993147E-02  3.23572333E-01  7.43507765E-01
  1.00000000E+00  0.00000000E+00  0.00000000E+00  0.00000000E+00  0.00000000E+00
  0.00000000E+00  0.00000000E+00  0.00000000E+00  7.08742682E-02  3.39752839E-01
  7.27158577E-01  1.00000000E+00  0.00000000E+00
Coordinates of each shell                  R   N=          27
  0.00000000E+00  0.00000000E+00  3.27489537E+00  0.00000000E+00  0.00000000E+00
  3.27489537E+00  0.00000000E+00  0.00000000E+00  3.27489537E+00  0.00000000E+00
  0.00000000E+00  3.27489537E+00  0.00000000E+00  0.00000000E+00  3.27489537E+00
  0.00000000E+00  0.00000000E+00  0.00000000E+00  0.00000000E+00  0.00000000E+00
  0.00000000E+00  0.00000000E+00  0.00000000E+00  0.00000000E+00  0.00000000E+00
  0.00000000E+00  0.00000000E+00
Num ILSW                                   I              100
ILSW                                       I   N=         100
           0           1           0           0           2           0
           0           0           0           0           0  1342177280
           5           0           0           0           0           0
           0           0           1           0           0           0
           1           1           0           0           0           0
           0           0      100000           0          -1           0
           0           0           0           0           0           0
           0           0           0           1           0           0
           0 -2000000000           1           0           0           0
           0           0           4          52           0           0
           0           0           0           0           0           0
           0           0           0           0           0           1
           0           0           0           0           0           0
           0           0           0           0           0           0
           0           0           0           0           0           0
           0           0           0           0           0           0
           0           0           0           0
Num RLSW                                   I               52
RLSW                                       R   N=          52
  1.00000000E+00  1.00000000E+00  1.00000000E+00  1.00000000E+00  1.00000000E+00
  0.00000000E+00  0.00000000E+00  1.00000000E+00  0.00000000E+00  0.00000000E+00
  0.00000000E+00  0.00000000E+00  1.00000000E+00  0.00000000E+00  0.00000000E+00
  0.00000000E+00  0.00000000E+00  1.00000000E+00  0.00000000E+00  0.00000000E+00
  0.00000000E+00  0.00000000E+00  1.00000000E+00  0.00000000E+00  0.00000000E+00
  0.00000000E+00  0.00000000E+00  1.00000000E+00  0.00000000E+00  0.00000000E+00
  0.00000000E+00  0.00000000E+00  1.00000000E+00  0.00000000E+00  0.00000000E+00
  0.00000000E+00  0.00000000E+00  0.00000000E+00  1.00000000E+00  1.00000000E+00
  0.00000000E+00  1.00000000E+00  0.00000000E+00  0.00000000E+00  0.00000000E+00
  0.00000000E+00  0.00000000E+00  0.00000000E+00  0.00000000E+00  0.00000000E+00
  0.00000000E+00  0.00000000E+00
MxBond                                     I                1
NBond                                      I   N=           2
           1           1
IBond                                      I   N=           2
           2           1
RBond                                      R   N=           2
  1.00000000E+00  1.00000000E+00
Virial Ratio                               R      2.000562629833086E+00
SCF Energy                                 R     -5.342477272379135E+02
Total Energy                               R     -5.342477272379135E+02
RMS Density                                R      1.957825487207985E-09
Job Status                                 I                1
Nuclear derivative order                   I                0
External E-field                           R   N=          35
  0.00000000E+00  0.00000000E+00  0.00000000E+00  0.00000000E+00  0.00000000E+00
  0.00000000E+00  0.00000000E+00  0.00000000E+00  0.00000000E+00  0.00000000E+00
  0.00000000E+00  0.00000000E+00  0.00000000E+00  0.00000000E+00  0.00000000E+00
  0.00000000E+00  0.00000000E+00  0.00000000E+00  0.00000000E+00  0.00000000E+00
  0.00000000E+00  0.00000000E+00  0.00000000E+00  0.00000000E+00  0.00000000E+00
  0.00000000E+00  0.00000000E+00  0.00000000E+00  0.00000000E+00  0.00000000E+00
  0.00000000E+00  0.00000000E+00  0.00000000E+00  0.00000000E+00  0.00000000E+00
IOpCl                                      I                0
IROHF                                      I                0
Alpha Orbital Energies                     R   N=          34
 -1.04565658E+02 -2.02583433E+01 -1.02949549E+01 -7.76429461E+00 -7.76169868E+00
 -7.76169868E+00 -9.73584529E-01 -7.26536530E-01 -2.57552718E-01 -2.57552718E-01
 -2.38065947E-01 -1.17492439E-01 -1.17492439E-01  4.34750462E-01  7.74874839E-01
  8.64693751E-01  8.78892880E-01  8.78892880E-01  1.32238150E+00  1.32238150E+00
  1.33873623E+00  1.41446753E+00  1.41446753E+00  1.59602316E+00  1.59602316E+00
  1.61486003E+00  1.85516357E+00  2.43040684E+00  2.43040684E+00  2.50701366E+00
  2.50701366E+00  2.97429353E+00  4.15020367E+00  4.98483478E+00
Alpha MO coefficients                      R   N=        1156
  9.96119186E-01  1.46423253E-02  8.53145737E-17  5.52147646E-17 -3.73255665E-05
 -1.77110919E-02 -1.44313220E-16 -2.66891576E-17  2.04506090E-05  1.42114969E-03
 -1.49776872E-16 -3.21029928E-18 -2.00594533E-05  6.27158583E-03  6.27158583E-03
  6.27717067E-03  3.50154551E-19  1.74619705E-16 -4.75193873E-17  6.70216081E-06
  6.21517593E-05 -9.37841784E-17  3.96770330E-18  4.16703210E-05 -1.21976105E-04
  3.51662135E-18 -3.97746036E-17  3.02314343E-05  3.17892092E-05  3.17892092E-05
  2.74056138E-06 -2.60923012E-18  4.77087426E-16 -1.38682040E-16  2.94962246E-07
 -2.53492537E-06  3.63078383E-16 -2.02984677E-16  9.45099288E-05 -2.30377518E-04
  1.82992261E-16 -1.05648453E-16 -3.53066937E-04 -3.44574052E-05 -5.54280899E-17
  3.20418937E-17  3.70648249E-05  6.77439946E-05  6.77439946E-05  4.33144282E-04
 -2.56091697E-17 -4.30409789E-17  8.66692157E-17  9.94845269E-01  2.06671543E-02
  7.35573228E-17 -4.45662825E-17  1.00237433E-03  3.36338355E-03  2.26676908E-17
  1.19254049E-17 -5.22168651E-04 -3.54497557E-03 -3.54497557E-03 -4.24454345E-03
  5.08879757E-16 -1.06631915E-16  2.68643829E-16 -2.86763673E-01  1.03064063E+00
  1.96781767E-15 -6.95937060E-16 -3.32431358E-03  2.53952041E-02  2.94494912E-17
  6.41531421E-17 -8.13815049E-04 -5.45214403E-03  9.02271642E-17 -2.05783758E-17
  3.31479349E-04 -1.69671115E-03 -1.69671115E-03 -1.10520186E-03  1.78230542E-18
 -2.24829229E-18 -7.06461550E-17 -6.52137233E-05  1.35115814E-04  1.98168733E-17
  5.38655848E-17  1.54366469E-04  6.13746847E-04 -3.50560909E-17 -6.90482145E-17
 -5.48958827E-04  5.66832179E-05  5.66832179E-05 -7.60356816E-04 -2.17954973E-17
  5.88992111E-17 -2.03714406E-16 -1.07186164E-03  4.03150195E-03 -3.35135206E-13
  1.22936817E-13  9.92927742E-01 -1.37735404E-03 -6.87063593E-15  2.57197033E-15
  2.25334454E-02 -7.11318148E-04  1.58227602E-15 -5.91162139E-16 -4.51686764E-03
  7.71007800E-04  7.71007800E-04 -6.40135713E-04  9.17230500E-18 -3.13670814E-17
 -9.06084476E-17  3.78254865E-05 -4.99378158E-04  1.52180993E-16  1.03397006E-16
 -1.07066622E-04  3.03329236E-04 -1.63669534E-16 -8.35481291E-17  1.90817144E-03
 -3.76064116E-04 -3.76064116E-04  1.30942089E-03 -1.79926498E-16 -2.37946404E-16
 -5.80824205E-17  3.49511034E-16 -9.52921649E-16  9.87308524E-01 -1.11850644E-01
  3.46529248E-13 -1.11292985E-15  2.00127041E-02 -2.26720805E-03  7.73457459E-15
 -2.41931853E-15 -4.42230901E-03  5.00996496E-04 -7.14209698E-16  1.13190508E-15
  1.86447460E-15  9.50362390E-16 -8.61595436E-16 -1.98504432E-04  2.24882578E-05
 -2.02552918E-16 -6.38897066E-16  3.46815882E-06 -3.92902308E-07  1.24101158E-16
  1.67683606E-15  2.27028227E-04 -2.57196740E-05  4.97438743E-16 -1.28528041E-16
 -3.29024434E-16  2.21084447E-16  2.59087790E-16 -2.42967861E-04  2.75254503E-05
  1.88112404E-16 -8.29334533E-16  1.11850644E-01  9.87308524E-01 -8.43450041E-14
  6.16185187E-15  2.26720805E-03  2.00127041E-02 -2.00323716E-15 -1.08707779E-15
 -5.00996496E-04 -4.42230901E-03  1.43841963E-15 -2.36446579E-15 -1.97769580E-15
 -2.61993219E-15  2.37183846E-16 -2.24882578E-05 -1.98504432E-04  6.88975565E-17
 -1.31607121E-15  3.92902307E-07  3.46815882E-06 -2.61938013E-16  2.61900515E-15
  2.57196740E-05  2.27028227E-04  4.38430745E-16 -1.72290054E-15  6.70071129E-16
 -1.76904274E-16  3.69292897E-16 -2.75254503E-05 -2.42967861E-04  4.15539291E-02
 -1.89646255E-01 -2.66855439E-17 -7.79255979E-17  4.72423196E-02  3.59343704E-01
 -2.59232560E-17  2.28910866E-16 -1.04747525E-01  1.26366220E-01 -1.96867257E-17
 -1.60737753E-18  3.91855296E-03 -8.81009673E-03 -8.81009673E-03  3.13328661E-02
  1.70818989E-16  2.43864492E-17  3.44425603E-17 -1.84598492E-01  4.08950189E-01
  2.43173972E-17 -4.13862795E-18  5.71960829E-02  4.29045146E-01  1.71727788E-16
 -2.60223076E-17  4.18734185E-02 -1.90888267E-03 -1.90888267E-03  1.94381695E-02
 -1.44388174E-17  9.38722764E-18 -1.01676734E-16  6.95387937E-02 -3.20127456E-01
 -1.31922718E-16 -7.97984843E-17 -3.80960701E-02  6.30395355E-01  1.85721671E-16
  7.29283164E-18  8.74370051E-02  3.36179359E-01  4.06124727E-17 -9.59090634E-18
  3.25318567E-02  4.72491143E-03  4.72491143E-03 -1.01436487E-02 -2.22225348E-16
  7.15464031E-17 -1.19498109E-16  1.26960210E-01 -2.79194517E-01 -6.68907956E-17
  1.58327121E-16  6.81973608E-02 -3.70091062E-01 -6.94567636E-17 -8.25712319E-17
  2.88333255E-02  7.46418868E-04  7.46418868E-04  9.80312221E-03  2.35718736E-16
  3.89128169E-16 -1.01779643E-16  1.16901033E-16 -6.72083205E-16 -6.41832029E-02
 -1.95210162E-01 -5.27066124E-15  1.27889896E-15  1.62600754E-01  4.94542469E-01
  1.34085581E-14  3.04757814E-15  9.73461092E-02  2.96073566E-01  5.79211605E-15
  5.98805943E-17  6.87177874E-17 -1.34416158E-15  4.61332156E-16 -5.58769858E-03
 -1.69947197E-02 -1.31990718E-15  2.93044439E-15  1.20536471E-01  3.66605950E-01
 -7.90670972E-15  5.89162821E-15  8.85137337E-02  2.69210316E-01 -6.31605835E-15
  7.86322507E-17  1.40228207E-16 -9.77373494E-16 -3.54664291E-17  5.13472949E-03
  1.56170358E-02  1.87301091E-16 -1.12486281E-15 -1.95210162E-01  6.41832029E-02
 -9.70043910E-15  1.69497484E-15  4.94542469E-01 -1.62600754E-01  2.46002343E-14
  5.53936072E-15  2.96073566E-01 -9.73461092E-02  1.13388977E-14  2.36409949E-16
  6.05756189E-16 -2.40852690E-15 -8.87955484E-17 -1.69947197E-02  5.58769858E-03
 -2.49857657E-15  5.10103978E-15  3.66605950E-01 -1.20536471E-01 -1.47010649E-14
  1.19694531E-14  2.69210316E-01 -8.85137337E-02 -1.15155377E-14  8.82973545E-17
 -8.74491833E-18 -1.96171535E-15  8.73638243E-18  1.56170358E-02 -5.13472949E-03
  3.64536705E-03 -2.37313263E-02  9.78789732E-15  1.69733264E-15 -2.26703793E-01
  2.65603313E-02 -2.48425162E-14 -4.31240501E-15  5.75680071E-01  1.31517711E-01
 -1.50631577E-14 -2.56599183E-15  2.64024516E-01  1.08321490E-02  1.08321490E-02
 -5.06752525E-02  1.28709538E-16  8.90810533E-16  6.10463530E-17 -5.81647278E-02
  1.22347204E-01 -1.76405638E-14 -3.33642730E-15 -3.31707130E-01  2.73978290E-01
 -1.28930742E-14 -2.37697403E-15 -2.62849380E-01  1.33869542E-03  1.33869542E-03
 -4.50998856E-02  3.83748607E-17 -4.91988963E-16 -1.72537513E-16  9.47082401E-18
 -5.44000260E-17  1.70280309E-01 -7.07434030E-02  3.19601921E-16 -8.79059650E-18
 -4.45013878E-01  1.84882189E-01 -8.57906538E-16  2.30796357E-16 -2.97609533E-01
  1.23642665E-01 -6.94164344E-16  7.70373300E-17  2.86700492E-17  6.21663786E-17
  1.28560924E-16 -3.42751692E-02  1.42397094E-02  1.34820439E-16 -1.87233839E-16
  4.66525597E-01 -1.93819289E-01 -5.90428688E-17 -8.79860624E-16  4.12541284E-01
 -1.71391364E-01 -9.18353001E-17  5.50880636E-17  4.33564849E-17  7.53469996E-17
  7.27721505E-17  8.27184988E-03 -3.43656183E-03 -6.65357634E-18  1.96398523E-17
  7.07434030E-02  1.70280309E-01  1.58065717E-16 -2.12009944E-16 -1.84882189E-01
 -4.45013878E-01 -4.45549858E-16  9.95190840E-17 -1.23642665E-01 -2.97609533E-01
 -1.87949892E-16  5.61997815E-17  1.67381547E-16  4.99183513E-17  2.92785667E-16
 -1.42397094E-02 -3.42751692E-02  3.58404412E-17 -9.63061815E-17  1.93819289E-01
  4.66525597E-01 -9.57058983E-17 -1.62286537E-16  1.71391364E-01  4.12541284E-01
 -7.88110922E-17 -2.48125379E-18 -1.73073820E-17  1.03459309E-17 -2.41213289E-18
  3.43656183E-03  8.27184988E-03 -2.07068932E-02  1.02993031E-01  8.73650851E-17
 -5.57282286E-17 -1.17266287E-01 -1.99539317E-01 -2.04995686E-16  3.97471954E-16
  2.76868130E-01 -4.28791089E-01 -2.43100529E-16 -7.11002131E-16  8.98878366E-01
 -5.44345557E-02 -5.44345557E-02  1.21681681E-01  1.24074605E-16 -4.15827290E-16
  1.10142730E-16 -5.81913860E-02  6.39936410E-02 -9.63573869E-18  7.15400909E-17
  4.21568448E-01  6.36172784E-01  8.03147358E-16  1.24188814E-16  7.23261766E-01
 -2.65536459E-02 -2.65536459E-02  5.90652209E-03 -4.33395881E-17 -2.00641206E-16
  3.26017507E-17 -6.86004114E-02  7.73426082E-02  3.55264953E-16 -1.00929917E-15
  5.58918139E-02 -1.38043548E+00 -1.57785837E-15  4.15166203E-15 -1.87852568E-01
  1.95626895E+00  1.82771685E-15 -4.65399787E-15 -1.35665611E-01 -9.39579882E-02
 -9.39579882E-02 -2.06890605E-01 -2.38955763E-16 -3.69199152E-16 -2.77412027E-16
  2.17809486E-02 -5.17230604E-02 -4.70976106E-16  4.92194792E-16  4.82606786E-02
 -3.44477199E-01  8.37737278E-17  1.72730455E-16 -2.30105978E-01  1.17195716E-02
  1.17195716E-02 -6.53763762E-02  9.82190930E-17 -1.16588337E-16 -1.65343661E-16
  7.74376940E-03  4.71238946E-03 -2.75022195E-15 -1.06328338E-14  3.02830278E-01
  1.99403486E-01  1.06138212E-14  4.13980336E-14 -1.15665935E+00 -4.39232128E-01
 -1.08372376E-14 -4.50747857E-14  1.43292407E+00 -4.78439854E-03 -4.78439854E-03
  4.39840651E-02  2.61711073E-16  1.05934140E-15 -1.85210376E-15 -1.06003191E-02
 -1.38593510E-01  1.22834393E-15  9.27321618E-16 -2.68385220E-01  7.66731690E-01
  4.17142038E-16  5.73126294E-15  1.32907866E-01 -8.11310384E-02 -8.11310384E-02
  4.96889189E-02  1.48681448E-16  9.25165384E-16  7.51677937E-16  1.92052983E-16
 -1.91993042E-16  3.02583739E-01  7.75737933E-03  2.88286822E-15  4.16034712E-15
 -1.17762595E+00 -3.01909523E-02 -1.11844107E-14 -6.06908197E-15  1.26943012E+00
  3.25445479E-02  1.33611990E-14 -7.92549916E-16  1.38518239E-15  9.57919665E-17
 -5.17382169E-16  4.59966270E-02  1.17922161E-03  4.37510915E-17  1.65377721E-15
 -4.60409389E-02 -1.18035764E-03 -3.10830049E-15  1.45503876E-15 -1.39367731E-01
 -3.57298894E-03  1.39048931E-15  2.69791206E-16  9.66454067E-16  1.90957402E-15
  2.33316451E-16 -2.73228046E-02 -7.00478356E-04  4.40725988E-17  1.76389268E-16
 -7.75737933E-03  3.02583739E-01  1.08659797E-14  3.75898284E-15  3.01909523E-02
 -1.17762595E+00 -4.15788190E-14 -7.06575176E-15 -3.25445479E-02  1.26943012E+00
  5.05815628E-14 -2.51352552E-15 -2.16504097E-15  3.42797195E-16 -4.09393500E-16
 -1.17922161E-03  4.59966270E-02 -2.24656411E-16 -4.88960262E-15  1.18035764E-03
 -4.60409389E-02 -9.04501514E-15  2.49159878E-14  3.57298894E-03 -1.39367731E-01
  3.85346422E-15 -2.41327670E-15 -2.93943115E-15  2.06708706E-15 -2.46396331E-16
  7.00478356E-04 -2.73228046E-02  1.55154568E-17  2.56297692E-16 -4.18840735E-03
 -1.17179116E-02 -1.93385064E-16  9.06696523E-16  1.40286751E-02  3.92480390E-02
  7.02623541E-16 -3.68579436E-15  1.74341780E-02  4.87756179E-02  2.24158111E-15
 -7.97284703E-15  2.07087997E-15  6.57682515E-15 -5.20588889E-15  2.66958185E-01
  7.46869192E-01 -2.07287057E-16 -1.68176680E-14  1.83364337E-01  5.12998594E-01
  5.84537197E-15  2.98383786E-14 -1.60501032E-01 -4.49033903E-01 -5.74435845E-15
 -6.24551633E-15 -5.96252665E-15 -4.74826230E-15 -3.74945260E-16 -4.38148902E-02
 -1.22580964E-01 -2.47268423E-17  3.95083761E-16 -1.17179116E-02  4.18840735E-03
 -9.68716895E-16  5.73047161E-16  3.92480390E-02 -1.40286751E-02  3.67271068E-15
 -4.10828425E-15  4.87756179E-02 -1.74341780E-02  9.35549776E-16 -1.26961104E-14
  8.02425823E-16  1.19105209E-14 -4.71962987E-15  7.46869192E-01 -2.66958185E-01
 -2.75645641E-16 -2.77191234E-14  5.12998594E-01 -1.83364337E-01  8.73015856E-15
  4.76665017E-14 -4.49033903E-01  1.60501032E-01 -8.74427431E-15 -1.03278202E-14
 -9.51649063E-15 -8.00150553E-15  1.57997665E-16 -1.22580964E-01  4.38148902E-02
  2.54791372E-03  1.35137048E-02  1.33338693E-15  1.86303853E-16 -1.19709348E-02
  9.67978656E-02 -4.77591245E-15 -1.60098820E-16  4.09149339E-02 -2.82465670E-01
  2.44140728E-15 -5.66164351E-16  1.75733717E-01 -2.00350843E-01 -2.00350843E-01
  4.27549352E-01  1.74422464E-16 -2.26573324E-14 -5.28822249E-15 -1.50603081E-02
 -1.12114279E+00 -1.67097584E-14 -1.83797073E-15  3.57286819E-01  2.00926055E+00
  1.43183134E-14  1.31901352E-15 -3.54370800E-01 -4.02039665E-01 -4.02039665E-01
 -3.26792150E-01 -1.53225252E-16  2.70115445E-15  1.14822050E-15 -8.96468012E-16
  4.01529813E-15  2.46252299E-16  3.07626431E-16 -2.89024964E-16 -3.00754427E-14
 -1.08911776E-15  1.15675418E-16  1.36183855E-15 -1.32411617E-15  1.65529559E-15
 -6.69255628E-16  3.03137170E-15  8.64949137E-01 -8.64949137E-01 -1.60388576E-15
  3.63380824E-04  1.01076649E-14  4.91607024E-15 -8.08834466E-16  2.66391557E-15
  1.67176634E-15 -1.63846250E-15 -2.38044246E-15  3.39450663E-15 -4.54642797E-16
  2.45236175E-15  8.24135670E-15  3.16608997E-02 -3.16608997E-02 -2.07780108E-15
  1.33013183E-05 -4.54701921E-15 -1.32848522E-15 -3.27002891E-17 -2.68638848E-17
  1.02974455E-15  4.99232387E-16  8.36122523E-18 -9.28415775E-16 -1.05055101E-15
 -1.58973490E-15  8.97417098E-17  1.92680393E-15  1.78312927E-15  1.50837009E-15
 -1.51597644E-15 -3.14697024E-04  3.14697024E-04  1.39882759E-16  9.98757234E-01
  4.34637224E-15  2.40813351E-15  3.87584145E-17  8.28986822E-16  3.90179959E-15
  2.16691185E-15 -3.93247362E-16 -2.35069311E-15 -5.24877449E-15 -3.40483608E-15
 -8.42669262E-16 -1.15192796E-05  1.15192796E-05  3.30478573E-16  3.65588579E-02
 -4.22615976E-16  1.50473770E-16  1.16321013E-16  6.41651105E-17  2.60567771E-03
 -1.43441974E-02  4.00250924E-16  2.81529140E-15 -1.31380339E-02  7.23245825E-02
 -2.53148050E-15 -3.15628777E-15  4.78921353E-02 -2.63645132E-01  2.63296382E-15
  7.96150599E-16  7.18369748E-15 -6.44562242E-15  1.03616791E-15 -9.82836154E-02
  5.41049101E-01 -2.61210214E-16 -2.31859885E-15  1.43570853E-01 -7.90354328E-01
  1.02193031E-14  6.97335848E-15 -1.78834385E-01  9.84479283E-01 -7.70581173E-15
 -1.27617115E-15 -1.36662062E-15 -1.70555787E-15 -1.66041495E-15  2.82100477E-02
 -1.55295680E-01 -2.59311828E-16 -1.42389093E-16 -1.43441974E-02 -2.60567771E-03
 -9.18580721E-16 -6.90862381E-15  7.23245825E-02  1.31380339E-02  4.95984746E-15
  1.12350174E-14 -2.63645132E-01 -4.78921353E-02 -1.11596508E-14 -1.33581644E-14
 -2.79173361E-15  1.45724036E-14  1.80498549E-15  5.41049101E-01  9.82836154E-02
  1.03041027E-15  5.85866961E-15 -7.90354328E-01 -1.43570853E-01 -1.29122864E-14
 -2.14662144E-14  9.84479283E-01  1.78834385E-01  5.33093805E-15  2.27773270E-15
  2.10584514E-15  4.99058454E-15  5.03768783E-16 -1.55295680E-01 -2.82100477E-02
  1.19990325E-02  4.47133115E-03 -3.71921907E-16  5.71247174E-16  5.10690832E-02
  3.00141898E-01  1.96081071E-15 -2.18229398E-15 -2.77796399E-01 -4.09213335E-01
 -5.68017305E-15  3.40802018E-15  4.28806256E-01  4.00000765E-01  4.00000765E-01
 -6.90470571E-01  2.50094905E-16  1.32613280E-14 -4.86753944E-15 -4.13624528E-02
 -1.16261863E-01 -1.61601018E-14  5.82728290E-15  7.25630395E-01  6.59432630E-01
  2.06932225E-14 -7.61617524E-15 -4.47606281E-01 -6.80693287E-02 -6.80693287E-02
 -1.55388193E-01  7.01099100E-16 -3.81807707E-15  1.76459000E-15  8.83998285E-03
  2.66447433E-02  2.21206691E-16  4.88989782E-16 -1.97036194E-02  3.38054489E-01
 -8.88976449E-16 -1.45833804E-15  1.48112781E-01 -1.21396336E+00  1.11699519E-15
  8.24949642E-16  9.00559973E-01  2.23191519E-01  2.23191519E-01 -5.26414750E-01
  5.49409509E-16  1.48821792E-15  1.15089975E-15 -7.84203704E-02 -1.05031668E+00
 -1.77925697E-15 -1.26684686E-15 -5.85602499E-01  2.66608410E+00  1.89139384E-15
  1.40810479E-15  1.35035809E+00 -1.91077909E-01 -1.91077909E-01 -7.10702659E-01
 -2.29346426E-16 -1.62269453E-15 -3.72197825E-16 -3.43062447E-17  9.71063197E-17
  1.38630274E-16  4.56920183E-16 -8.70790035E-17 -2.86324754E-16  5.84431208E-16
 -1.08386846E-15 -1.77776000E-17  9.26980511E-16 -5.40966462E-16 -1.30205470E-15
 -1.17444435E-15 -4.80191119E-04  4.80191119E-04  1.33476303E-15 -5.22535717E-02
 -1.76870024E-15  5.89995192E-15  5.50019709E-16 -1.97837758E-16  1.41379843E-15
 -2.95630506E-15 -1.39116894E-16 -4.50088498E-15 -1.13608789E-15  3.76933122E-15
 -5.75552425E-16  9.18410725E-03 -9.18410725E-03  5.76288475E-16  9.99398756E-01
 -2.18944828E-15  1.24963104E-14  3.75237866E-17 -8.92458723E-16 -1.16485820E-14
  5.15298962E-15 -1.03514721E-15 -3.43005054E-15  2.33857754E-14 -5.97031716E-15
  3.81917607E-15  1.14785853E-14  8.87276942E-14 -2.36332353E-14 -1.06867631E-14
 -4.52529205E-02  4.52529205E-02 -1.84602738E-15  5.54476943E-04 -2.25944774E-13
  5.88047259E-14 -1.16951572E-15  1.81377576E-14  6.42727366E-14 -1.66633757E-14
  2.67586340E-15 -2.30964851E-14 -1.08348245E-13  2.79076335E-14 -7.08257541E-15
  8.65504711E-01 -8.65504711E-01  1.25420194E-14 -1.06048936E-02 -6.99821596E-13
  1.83367874E-13  1.19149532E-17 -3.72233262E-16  5.23205689E-03  1.64194898E-02
  1.04103918E-16  2.81287201E-16 -1.05916212E-02 -3.32391294E-02 -9.06533707E-16
  2.87398291E-15 -3.76700910E-02 -1.18218071E-01 -1.49077720E-15 -1.41138172E-15
 -1.20705118E-15  1.06942973E-15 -1.24159918E-16  9.73672735E-02  3.05562609E-01
  4.07575987E-16  8.82099355E-16 -2.75884463E-02 -8.65793743E-02  4.86715530E-16
 -5.09218888E-15  4.64723145E-02  1.45841628E-01 -2.15027708E-15  3.60113138E-14
 -3.13076508E-14 -1.34210996E-15 -1.20894177E-14  3.01370597E-01  9.45775543E-01
  6.77918303E-17  3.46120382E-16  1.64194898E-02 -5.23205689E-03 -2.81829718E-16
 -2.17735468E-15 -3.32391294E-02  1.05916212E-02  2.77897095E-15 -1.69903135E-15
 -1.18218071E-01  3.76700910E-02  2.22054192E-16 -2.98453026E-14  3.26005941E-14
 -1.27711997E-15  5.29298379E-17  3.05562609E-01 -9.73672735E-02  6.14574772E-16
 -4.44642461E-15 -8.65793743E-02  2.75884463E-02 -4.15811686E-16  1.66888626E-15
  1.45841628E-01 -4.64723145E-02  2.99358628E-15  6.30499928E-13 -6.28618241E-13
  4.08668987E-15 -1.33383378E-15  9.45775543E-01 -3.01370597E-01 -2.76250500E-02
  1.45321452E-01  4.32218983E-17  3.21613271E-16 -1.38151106E-01 -5.34851600E-01
 -2.88983558E-16 -6.40301266E-16  5.64571489E-01 -6.21628296E-01  7.90894067E-16
 -3.52022231E-16  3.68009500E-01  4.77026001E-01  4.77026001E-01 -4.46891925E-01
 -6.01633310E-17 -5.32859142E-16  9.89415025E-16 -1.85124117E-02 -6.56936186E-01
  3.87488299E-17 -4.36665362E-16 -2.72284258E-01  1.34631942E+00 -1.44125708E-16
  6.66130008E-16  9.10430645E-01 -5.77382127E-01 -5.77382127E-01  9.50661846E-01
  1.32005966E-15 -1.74983914E-15  3.32449207E-15  1.67675424E-02 -5.51026560E-02
  4.18840432E-16  2.20914030E-16 -1.19098657E-03  5.32301741E-01 -1.63972948E-15
 -5.89662012E-16  8.51457593E-02 -6.11746003E-01  1.24428250E-15  4.41134889E-16
  4.53273780E-01 -1.55187143E-01 -1.55187143E-01 -2.73887719E-01 -1.08411137E-16
  7.78878947E-16  6.74602054E-17 -4.46964092E-01  3.84507135E-01 -5.02190522E-16
  6.68853370E-17 -1.45291627E-01  3.22549078E+00  1.42604966E-16 -2.30565604E-16
  5.08660403E-01 -1.55222691E+00 -1.55222691E+00 -1.27966844E+00  1.85432480E-15
  2.23956007E-15  3.97647392E-16  1.68259092E-01 -7.89740631E-01 -6.36206303E-16
 -8.40818090E-16 -2.40678407E-02  5.50600583E+00  1.26631910E-15  4.69360524E-15
  9.62720772E-02  5.66102305E-02  1.40960651E-16 -3.14966110E-15 -3.23875480E-02
 -2.41263189E+00 -2.41263189E+00 -2.51321795E+00  2.35697321E-17 -1.79253115E-17
  4.90315196E-17  3.65570110E-02 -1.25094647E-01 -1.31825378E-16 -1.18964337E-17
 -3.13683759E-02 -1.94387023E-01  6.93171551E-17  2.82272063E-16  9.53360371E-02
  4.48829501E-02  4.48829501E-02  3.15890833E-01 -6.36050235E-19 -2.78590895E-16
 -1.81417048E-17
Orthonormal basis                          R   N=        1156
  7.73649754E-03  5.41941190E-02  0.00000000E+00  0.00000000E+00 -1.23775303E-02
  1.66774113E-01 -2.00284300E-18  4.29192757E-19 -6.93942081E-02  1.77609597E-01
 -3.42376983E-19  1.44373800E-19 -1.11143269E-01  1.14059220E-01  1.14059220E-01
  1.41280293E-01  0.00000000E+00  3.31219496E-21 -2.14411859E-21  2.69143677E-02
  1.35351026E-01 -7.64782845E-21  1.05782954E-20  3.55541428E-02  1.82177272E-01
 -5.05829845E-20  3.78502823E-20  9.78430252E-02  1.16747558E-01  1.16747558E-01
  1.42832196E-01  0.00000000E+00 -2.67828767E-21  1.27974519E-20  1.45405502E-02
  8.49376860E-02 -1.24235370E-16  0.00000000E+00  1.73343053E-02  2.08441132E-01
 -7.12665864E-18 -3.07134049E-18  8.11231093E-02  1.57938018E-01 -4.85046794E-18
 -1.32554556E-18  1.49346333E-01  1.61671944E-01  1.61671944E-01  1.38040245E-01
  0.00000000E+00  1.47031566E-19  3.79429784E-20 -4.13582103E-02 -1.78924560E-01
 -6.92477256E-19 -1.69150184E-19  2.86165346E-02 -1.80276799E-01 -1.82293820E-18