fubar
SP        RHF                                                         Aug-CC-pVDZ
Number of atoms                            I                2
Info1-9                                    I   N=           9
          12          11           0           0           0         110
           1           1           2
Full Title                                 C   N=           1
fubar
Route                                      C   N=           5
#HF/aug-cc-pVDZ scf=tight maxdisk=10GB Symmetry=none Polar
Charge                                     I                0
Multiplicity                               I                1
Number of electrons                        I               14
Number of alpha electrons                  I                7
Number of beta electrons                   I                7
Number of basis functions                  I               46
Number of independent functions            I               46
Number of point charges in /Mol/           I                0
Number of translation vectors              I                0
Atomic numbers                             I   N=           2
           6           8
Nuclear charges                            R   N=           2
  6.00000000E+00  8.00000000E+00
Current cartesian coordinates              R   N=           6
  0.00000000E+00  0.00000000E+00  2.13728025E+00  0.00000000E+00  0.00000000E+00
  0.00000000E+00
Number of symbols in /Mol/                 I                0
Int Atom Types                             I   N=           2
           0           0
Force Field                                I                0
Atom Types                                 C   N=           2

MM charges                                 R   N=           2
  0.00000000E+00  0.00000000E+00
Integer atomic weights                     I   N=           2
          12          16
Real atomic weights                        R   N=           2
  1.20000000E+01  1.59949146E+01
Atom fragment info                         I   N=           2
           0           0
Atom residue num                           I   N=           2
           0           0
Nuclear spins                              I   N=           2
           0           0
Nuclear ZEff                               R   N=           2
 -3.60000000E+00 -5.60000000E+00
Nuclear ZNuc                               R   N=           2
  6.00000000E+00  8.00000000E+00
Nuclear QMom                               R   N=           2
  0.00000000E+00  0.00000000E+00
Nuclear GFac                               R   N=           2
  0.00000000E+00  0.00000000E+00
MicOpt                                     I   N=           2
          -1          -1
Number of residues                         I                0
Number of secondary structures             I                0
Number of contracted shells                I               18
Number of primitive shells                 I               46
Pure/Cartesian d shells                    I                0
Pure/Cartesian f shells                    I                0
Highest angular momentum                   I                2
Largest degree of contraction              I                7
Shell types                                I   N=          18
           0           0           0           0           1           1
           1          -2          -2           0           0           0
           0           1           1           1          -2          -2
Number of primitives per shell             I   N=          18
           7           7           1           1           3           1
           1           1           1           7           7           1
           1           3           1           1           1           1
Shell to atom map                          I   N=          18
           1           1           1           1           1           1
           1           1           1           2           2           2
           2           2           2           2           2           2
Primitive exponents                        R   N=          46
  6.66500000E+03  1.00000000E+03  2.28000000E+02  6.47100000E+01  2.10600000E+01
  7.49500000E+00  2.79700000E+00  6.66500000E+03  2.28000000E+02  6.47100000E+01
  2.10600000E+01  7.49500000E+00  2.79700000E+00  5.21500000E-01  1.59600000E-01
  4.69000000E-02  9.43900000E+00  2.00200000E+00  5.45600000E-01  1.51700000E-01
  4.04100000E-02  5.50000000E-01  1.51000000E-01  1.17200000E+04  1.75900000E+03
  4.00800000E+02  1.13700000E+02  3.70300000E+01  1.32700000E+01  5.02500000E+00
  1.17200000E+04  4.00800000E+02  1.13700000E+02  3.70300000E+01  1.32700000E+01
  5.02500000E+00  1.01300000E+00  3.02300000E-01  7.89600000E-02  1.77000000E+01
  3.85400000E+00  1.04600000E+00  2.75300000E-01  6.85600000E-02  1.18500000E+00
  3.32000000E-01
Contraction coefficients                   R   N=          46
  6.93516317E-04  5.34150243E-03  2.71366714E-02  1.01992385E-01  2.75508636E-01
  4.51086433E-01  2.87565745E-01  7.73354740E-06  2.78072137E-04 -2.57875654E-03
 -8.95087684E-03 -1.06058855E-01 -1.31517686E-01  1.09948660E+00  1.00000000E+00
  1.00000000E+00  5.69792516E-02  3.13207212E-01  7.60376742E-01  1.00000000E+00
  1.00000000E+00  1.00000000E+00  1.00000000E+00  7.11864434E-04  5.48520199E-03
  2.79099296E-02  1.05133208E-01  2.84002490E-01  4.51673946E-01  2.73208126E-01
  7.69030046E-06  3.13484579E-04 -2.96614853E-03 -1.08753543E-02 -1.20753817E-01
 -1.06275264E-01  1.09597548E+00  1.00000000E+00  1.00000000E+00  6.26791663E-02
  3.33536566E-01  7.41239642E-01  1.00000000E+00  1.00000000E+00  1.00000000E+00
  1.00000000E+00
Coordinates of each shell                  R   N=          54
  0.00000000E+00  0.00000000E+00  2.13728025E+00  0.00000000E+00  0.00000000E+00
  2.13728025E+00  0.00000000E+00  0.00000000E+00  2.13728025E+00  0.00000000E+00
  0.00000000E+00  2.13728025E+00  0.00000000E+00  0.00000000E+00  2.13728025E+00
  0.00000000E+00  0.00000000E+00  2.13728025E+00  0.00000000E+00  0.00000000E+00
  2.13728025E+00  0.00000000E+00  0.00000000E+00  2.13728025E+00  0.00000000E+00
  0.00000000E+00  2.13728025E+00  0.00000000E+00  0.00000000E+00  0.00000000E+00
  0.00000000E+00  0.00000000E+00  0.00000000E+00  0.00000000E+00  0.00000000E+00
  0.00000000E+00  0.00000000E+00  0.00000000E+00  0.00000000E+00  0.00000000E+00
  0.00000000E+00  0.00000000E+00  0.00000000E+00  0.00000000E+00  0.00000000E+00
  0.00000000E+00  0.00000000E+00  0.00000000E+00  0.00000000E+00  0.00000000E+00
  0.00000000E+00  0.00000000E+00  0.00000000E+00  0.00000000E+00
Num ILSW                                   I              100
ILSW                                       I   N=         100
           0           0           0           0           2           0
           0           0           0           0           0  1342177280
           5           0           0           0           0           0
           0           0           1           0           0           0
           1           1           0           0           0           0
           0           0      100000           0          -1           0
           0           0           0           0           0           0
           0           0           0           1           0           0
           0 -2000000000           1           0           0           0
           0           0           4          52           0           0
           0           0           0           0           0           0
           0           0           0           0           0           1
           0           0           0           0           0           0
           0           0           0           0           0           0
           0           0           0           0           0           0
           0           0           0           0           0           0
           0           0           0           0
Num RLSW                                   I               52
RLSW                                       R   N=          52
  1.00000000E+00  1.00000000E+00  1.00000000E+00  1.00000000E+00  1.00000000E+00
  0.00000000E+00  0.00000000E+00  1.00000000E+00  0.00000000E+00  0.00000000E+00
  0.00000000E+00  0.00000000E+00  1.00000000E+00  0.00000000E+00  0.00000000E+00
  0.00000000E+00  0.00000000E+00  1.00000000E+00  0.00000000E+00  0.00000000E+00
  0.00000000E+00  0.00000000E+00  1.00000000E+00  0.00000000E+00  0.00000000E+00
  0.00000000E+00  0.00000000E+00  1.00000000E+00  0.00000000E+00  0.00000000E+00
  0.00000000E+00  0.00000000E+00  1.00000000E+00  0.00000000E+00  0.00000000E+00
  0.00000000E+00  0.00000000E+00  0.00000000E+00  1.00000000E+00  1.00000000E+00
  0.00000000E+00  1.00000000E+00  0.00000000E+00  0.00000000E+00  0.00000000E+00
  0.00000000E+00  0.00000000E+00  0.00000000E+00  0.00000000E+00  0.00000000E+00
  0.00000000E+00  0.00000000E+00
MxBond                                     I                1
NBond                                      I   N=           2
           1           1
IBond                                      I   N=           2
           2           1
RBond                                      R   N=           2
  2.00000000E+00  2.00000000E+00
Virial Ratio                               R      2.001751771691921E+00
SCF Energy                                 R     -1.127544373279963E+02
Total Energy                               R     -1.127544373279963E+02
RMS Density                                R      2.407927375706986E-09
Job Status                                 I                1
Nuclear derivative order                   I                0
External E-field                           R   N=          35
  0.00000000E+00  0.00000000E+00  0.00000000E+00  0.00000000E+00  0.00000000E+00
  0.00000000E+00  0.00000000E+00  0.00000000E+00  0.00000000E+00  0.00000000E+00
  0.00000000E+00  0.00000000E+00  0.00000000E+00  0.00000000E+00  0.00000000E+00
  0.00000000E+00  0.00000000E+00  0.00000000E+00  0.00000000E+00  0.00000000E+00
  0.00000000E+00  0.00000000E+00  0.00000000E+00  0.00000000E+00  0.00000000E+00
  0.00000000E+00  0.00000000E+00  0.00000000E+00  0.00000000E+00  0.00000000E+00
  0.00000000E+00  0.00000000E+00  0.00000000E+00  0.00000000E+00  0.00000000E+00
IOpCl                                      I                0
IROHF                                      I                0
Alpha Orbital Energies                     R   N=          46
 -2.06785572E+01 -1.13749365E+01 -1.52803176E+00 -8.08071639E-01 -6.39828242E-01
 -6.39828242E-01 -5.55004661E-01  7.88105766E-02  7.88105766E-02  8.13810419E-02
  1.05605376E-01  1.70176267E-01  1.70176267E-01  2.25219233E-01  2.47904534E-01
  2.47904534E-01  3.34984178E-01  4.33829570E-01  4.33829570E-01  5.22337684E-01
  6.02568497E-01  6.02568497E-01  6.97454583E-01  7.46396246E-01  7.46396246E-01
  9.39785345E-01  1.05430034E+00  1.05430034E+00  1.05742361E+00  1.20673917E+00
  1.20673917E+00  1.42671246E+00  1.65259057E+00  1.65259057E+00  1.67089561E+00
  1.67089561E+00  1.96623863E+00  1.96623863E+00  2.13768703E+00  2.23068785E+00
  2.98770779E+00  3.55008946E+00  3.55008946E+00  3.67067497E+00  3.67067497E+00
  4.03513035E+00
Alpha MO coefficients                      R   N=        2116
  1.70622293E-04  3.73866475E-04  5.61846424E-03  1.22100170E-03  6.86597223E-17
 -2.42360665E-16 -2.21827239E-04  3.19066718E-15 -1.05997796E-15 -3.90441870E-03
  2.34645480E-16 -5.73746239E-16 -1.90186954E-04 -6.20801653E-04 -5.43192969E-16
  7.80562033E-17  1.73566575E-16  2.02772645E-17  1.45658334E-03 -1.63220348E-15
  7.35085330E-16  2.06395672E-16 -8.87321689E-17  9.97248656E-01  1.67012003E-02
 -9.36768567E-03 -2.48036351E-03  3.99283631E-16 -1.11942033E-16  1.79571732E-03
 -2.35060816E-15  8.81658601E-16 -2.78366307E-03 -1.38015707E-15  9.27046112E-16
 -2.43240047E-04  4.60214740E-04  5.83688656E-16 -5.92542416E-16  1.13243404E-16
 -4.34057304E-16 -6.05199647E-04 -1.78338280E-15  8.47742114E-16  2.42013620E-16
  2.63494273E-16  9.97933626E-01  1.95069186E-02 -1.87632473E-03  5.71608860E-04
 -5.02181842E-18 -7.07590119E-17 -4.83345439E-03  2.13892788E-16  1.21847049E-16
  1.09246149E-04  5.29316831E-17  1.66773166E-16  1.28606444E-04  1.63012894E-03
 -1.36389386E-17  1.56291536E-16  1.77737284E-17  5.27611278E-18 -9.04483454E-04
 -1.18396430E-16 -9.98321933E-17  8.97424926E-17 -1.52378670E-17 -6.08009109E-04
  1.17367456E-03 -4.14984610E-03 -6.58321534E-04  7.33698848E-17  2.43657053E-17
  6.27234335E-04 -1.13560480E-16 -3.76202813E-18 -5.16311565E-03 -6.75498200E-17
 -2.29923766E-16  1.28065079E-04  4.61753155E-04 -8.39120098E-17  2.56815263E-16
  2.42771774E-16 -8.35656279E-17 -2.68781239E-03 -1.32672570E-16 -1.09632072E-16
 -7.97180637E-17  4.89685244E-17 -1.06717399E-01  2.27940592E-01  1.00493306E-01
  1.28096098E-02 -1.06363774E-16  1.85783515E-16 -2.18903147E-01  4.30071608E-16
  9.68227688E-16 -2.05422295E-03  1.89473144E-16  6.38848160E-16 -1.38269260E-03
  4.54531149E-02  1.43281137E-16 -1.35680141E-16 -7.26732745E-17  3.61497831E-17
 -1.67471010E-02 -2.61213597E-16 -7.68778148E-16 -9.68094016E-17 -9.99277848E-18
 -1.99582904E-01  4.19649153E-01  3.61261547E-01 -4.05131042E-02 -1.81032659E-17
  1.45244616E-16  1.61022094E-01 -2.18892911E-16 -6.07614155E-16  9.07641684E-03
 -5.89701585E-16 -1.09259211E-15 -2.25385998E-02  2.23761347E-02 -1.62852112E-16
  1.01846022E-16 -1.49632818E-16 -7.92097915E-17 -1.67784817E-02 -7.65073743E-18
 -5.33001255E-16  5.41533812E-18  6.94635678E-17 -1.21599294E-01  2.96482463E-01
  2.46743900E-01  3.23134192E-02  2.60762237E-16 -1.84862112E-16 -1.34852247E-01
  6.65190655E-16  8.38102144E-16 -1.08914977E-02  4.28699441E-16 -3.74591190E-16
 -6.28922000E-03  2.43962627E-02  3.25223881E-16 -2.67386807E-16 -1.71329115E-16
  1.05846457E-17  2.07582448E-04 -6.08352551E-16 -3.75889879E-16  8.73166037E-17
 -2.07941184E-16  1.05109733E-01 -2.37091651E-01 -4.17896824E-01 -1.18183568E-01
  4.08890255E-16 -1.12776752E-15  4.96533801E-01 -1.80819698E-16 -1.49130318E-15
  2.16078125E-01 -5.66225477E-16 -1.12363496E-16 -9.53830448E-03  2.21263225E-02
  5.78948688E-16  2.67781875E-16  1.87629918E-16 -1.20044390E-16 -4.21148040E-03
 -2.54927813E-16 -7.71818204E-16 -6.03495932E-17  2.11406107E-16 -1.88083621E-16
 -1.16020550E-15  1.73423116E-14  1.11072631E-14  2.82062552E-01  7.24166831E-02
 -1.00298329E-15  9.41996110E-02  2.41847892E-02 -8.58198531E-15 -5.09447910E-03
 -1.30795554E-03 -2.93004850E-15  6.86876566E-16 -5.43578260E-02 -1.39558173E-02
 -7.56471292E-17  5.87620249E-17  1.88760284E-15  1.00664298E-02  2.58445317E-03
  3.53599291E-16  1.98037074E-16  7.37558140E-17  9.20650071E-16 -7.60607810E-15
 -2.12546174E-14  5.31044140E-01  1.36340166E-01 -2.54378782E-16  3.55377914E-01
  9.12396543E-02 -4.85137923E-15  3.65224913E-02  9.37677708E-03 -5.10974904E-15
  3.24791387E-17  2.65667073E-02  6.82073111E-03 -3.60464763E-17  1.81951124E-17
 -4.83175751E-16  2.21887162E-02  5.69672653E-03  7.64866450E-18  1.67973509E-17
  1.13401868E-16  1.41853075E-15 -3.54171098E-14 -2.50999968E-14 -7.24166831E-02
  2.82062552E-01  1.60407434E-15 -2.41847892E-02  9.41996110E-02  2.18054207E-14
  1.30795554E-03 -5.09447910E-03  6.41432559E-15 -1.44203586E-15  1.39558173E-02
 -5.43578260E-02 -3.04763180E-17  1.33606541E-16 -6.10241555E-15 -2.58445317E-03
  1.00664298E-02  2.59707547E-16 -4.32614183E-17 -1.40323692E-16 -2.97230931E-15
  2.02292903E-14  4.43450074E-14 -1.36340166E-01  5.31044140E-01  8.26793362E-16
 -9.12396543E-02  3.55377914E-01  1.18676262E-14 -9.37677708E-03  3.65224913E-02
  8.17375728E-15  2.88937767E-16 -6.82073111E-03  2.65667073E-02  1.32357436E-17
  1.85882675E-21  1.15521298E-15 -5.69672653E-03  2.21887162E-02  1.78174304E-16
  2.88759110E-18 -1.34153227E-01  2.88191204E-01  4.54490385E-01  2.18929586E-02
 -2.80364052E-16  2.12367770E-16  4.64510452E-01 -9.90495863E-16 -9.98383844E-16
  1.92520052E-01 -4.12501261E-16 -5.18899748E-16  1.22592084E-02 -3.86611854E-02
  2.06357802E-16 -1.37455206E-16  1.29944651E-18 -5.01293338E-17  4.60704045E-03
  3.61298532E-16  6.91389867E-16 -7.55654382E-18 -3.80493651E-17  1.44064820E-02
 -3.77793117E-02  2.13268133E-02  8.95644432E-02 -1.71621691E-16  4.02934778E-16
 -2.54501657E-01  2.73397569E-16  8.32888331E-16 -9.93924882E-02  8.04848736E-16
  1.07786846E-15  8.73159176E-03 -1.54028704E-02 -1.77378120E-16  9.70195615E-17
 -5.40024849E-17  2.65070745E-16  1.76036019E-02  4.39160248E-16  2.09962346E-16
 -9.85045170E-18 -1.20198691E-16 -7.96011668E-16  4.56517272E-15 -5.85576142E-14
 -1.90945255E-13  1.56218886E-01 -5.32362379E-02  5.75295279E-15  1.55572902E-01
 -5.30160994E-02  4.87875066E-14  1.22928947E+00 -4.18916995E-01  6.90800863E-14
 -1.43436810E-15  2.50516301E-02 -8.53708904E-03  4.35370875E-17  2.66987752E-16
 -1.05787958E-14 -4.91722662E-02  1.67569141E-02 -1.17497329E-15 -1.84132748E-15
 -1.56147970E-15  1.50746979E-15  2.96693222E-14  2.05615204E-13 -1.80496010E-01
  6.15093907E-02 -3.04994931E-15 -1.65278291E-01  5.63234998E-02  1.52471665E-14
 -5.59384757E-01  1.90627015E-01  4.44320321E-14  1.24138311E-16  3.55930078E-03
 -1.21293774E-03 -1.59668792E-16 -1.26604802E-16  2.58009961E-15 -2.19265298E-03
  7.47211804E-04  7.74571723E-17 -3.07780606E-16  1.24084802E-15 -6.20748751E-15
  7.90819537E-14  2.71529446E-13  5.32362379E-02  1.56218886E-01 -7.99882490E-15
  5.30160994E-02  1.55572902E-01 -6.76842417E-14  4.18916995E-01  1.22928947E+00
 -9.77340409E-14  1.93010366E-15  8.53708904E-03  2.50516301E-02  1.23064292E-18
  2.07170532E-16  1.45257146E-14 -1.67569141E-02 -4.91722662E-02  1.11720177E-16
 -1.13881476E-16  2.21532528E-15 -2.32849076E-15 -4.07260237E-14 -2.88773553E-13
 -6.15093907E-02 -1.80496010E-01  4.29948085E-15 -5.63234998E-02 -1.65278291E-01
 -2.08453180E-14 -1.90627015E-01 -5.59384757E-01 -6.24237163E-14 -1.89652448E-16
  1.21293774E-03  3.55930078E-03  2.14076153E-17  1.98916047E-17 -3.65601862E-15
 -7.47211804E-04 -2.19265298E-03  6.48892188E-17 -1.52168871E-16 -1.55822175E-02
  7.22045198E-02 -8.78696744E-01 -3.27097550E+00 -4.24759052E-15  1.60230553E-14
  9.52504575E-02 -3.76379983E-15  1.49841414E-14  7.71931304E-01 -3.75880767E-14
  1.25240266E-13  1.21319732E+00 -2.02560921E-02 -8.56473271E-16  2.55785290E-15
  2.45868297E-17 -2.06262502E-16 -1.62899668E-01  1.45625200E-15 -4.69908813E-15
  1.10706409E-16 -4.89739289E-16 -2.75154370E-02  3.50412800E-02  4.60379869E-01
  3.42363526E+00  5.23889145E-15 -1.85491952E-14 -5.41257338E-02  3.99345263E-15
 -1.69381013E-14  2.26342452E-01  1.78281722E-14 -5.57366215E-14  7.39038162E-01
  1.81830723E-03  3.92581103E-18  5.81083920E-16  3.28872980E-17 -1.10955041E-16
  4.20834346E-02 -4.05125277E-16  6.96433666E-17 -2.44836763E-16  5.55294412E-16
  4.14130272E-02 -6.48543618E-02 -5.83013193E-03  9.52506988E-01  8.48657160E-17
 -8.53890363E-16 -8.48520807E-02  3.56210776E-16 -6.98890677E-16 -4.10005252E-01
  3.32212848E-16 -1.83962201E-15  1.20670281E+00  3.85854036E-02  1.32990621E-17
  9.00026621E-18  1.95908280E-16  9.51275806E-17 -2.35452069E-02 -4.95652913E-16
  7.67738879E-19 -4.00941464E-17  6.45129879E-17 -7.67577620E-03  4.48758098E-02
 -1.35199278E-01 -3.15629668E-01  5.11552845E-16  6.39469855E-16  2.28839338E-02
 -9.39616024E-16  6.82461957E-16 -7.29177444E-02 -1.17643306E-16  5.40419710E-16
 -5.77778094E-01 -5.93882168E-04 -7.71180170E-17  8.82958664E-17  7.38417747E-17
  8.70005963E-18 -2.48076736E-02 -2.88732401E-16  1.81677716E-16 -7.49490549E-17
  2.47013604E-17  8.25995597E-17  2.36740115E-16 -9.87045448E-17  1.01870861E-15
  9.66933313E-03  4.49231616E-01 -6.76224362E-17  1.90186360E-02  8.83594812E-01
 -1.19755394E-16 -1.01435248E-02 -4.71262288E-01  3.46119476E-16 -8.31907926E-17
 -3.13255616E-04 -1.45536745E-02  8.31110744E-17  4.89072989E-16 -1.34969258E-16
  8.14014071E-04  3.78186222E-02 -3.42923025E-16 -8.89332774E-16 -8.15834611E-17
  1.62699812E-16  9.50924760E-16 -2.19337947E-15 -4.83323787E-03 -2.24549432E-01
 -1.10136480E-16 -6.54652055E-03 -3.04147553E-01 -6.08900824E-16 -9.21941003E-03
 -4.28328450E-01  6.17036739E-16  2.33175272E-17  4.14353733E-04  1.92506344E-02
  1.99371822E-18 -7.43270527E-18 -1.81952328E-16 -5.82551031E-04 -2.70649835E-02
 -2.01106551E-16  1.17937705E-16  9.75548435E-17 -1.63160270E-16 -7.95912152E-15
 -4.89112363E-15  4.49231616E-01 -9.66933313E-03  1.93794132E-16  8.83594812E-01
 -1.90186360E-02  4.98867406E-15 -4.71262288E-01  1.01435248E-02  2.06232916E-15
 -2.37409057E-16 -1.45536745E-02  3.13255616E-04 -4.74186474E-17 -1.13017269E-16
 -1.52297230E-15  3.78186222E-02 -8.14014071E-04 -1.72778217E-15 -3.37814703E-16
  2.23258736E-17 -7.08975961E-16  3.58874500E-15  1.19277891E-14 -2.24549432E-01
  4.83323787E-03  1.13456417E-16 -3.04147553E-01  6.54652055E-03  2.58549909E-15
 -4.28328450E-01  9.21941003E-03  7.34711800E-16  1.49176912E-17  1.92506344E-02
 -4.14353733E-04 -4.66086422E-17  1.72555111E-17  2.87157507E-16 -2.70649835E-02
  5.82551031E-04 -3.06448189E-16  7.22333978E-17  4.23665021E-02 -4.49236537E-02
 -1.28566856E+00  1.20859561E-01  3.27870679E-16  6.70098861E-16  1.25906285E-02
 -1.32763636E-15 -3.99211174E-15 -2.24278485E-01 -7.27144784E-15 -1.20095997E-14
 -8.49915316E-01 -1.64593609E-02  7.71574434E-17  1.33188031E-15 -1.48156904E-16
  3.07810708E-16  1.86968141E-01  2.03552044E-15  3.41684837E-15  3.69391079E-16
 -1.01563692E-15 -8.58597990E-03  2.61277580E-02 -6.54197845E-02  3.51774041E-01
 -1.40397979E-15 -1.99482128E-15 -6.31793706E-02 -1.14227202E-16 -1.34103450E-15
 -6.59589282E-02  9.98018718E-15  2.13981674E-14  2.05102630E+00 -2.60468031E-02
 -1.22796358E-16 -6.76410965E-17  6.21131222E-17 -4.68841782E-17  8.97148294E-02
  9.82664394E-16  1.94249601E-15 -1.97995769E-16  4.86642160E-16 -6.03514361E-17
 -7.38300018E-16  9.04753671E-15  1.25669441E-14  8.43403407E-02 -7.08126096E-02
  6.36315647E-18 -1.70762719E-01  1.43373310E-01 -9.22622800E-15 -1.05197430E+00
  8.83243357E-01 -7.19417641E-15  8.34033868E-17  1.33699733E-02 -1.12255024E-02
 -1.09514186E-16  2.43624368E-16  3.78112973E-15  2.60582834E-01 -2.18786767E-01
  2.80563779E-15  8.16136920E-16  2.54291473E-17  5.12961746E-16 -5.92661685E-15
 -2.07273297E-14 -1.80481894E-01  1.51533582E-01 -3.73414300E-16 -1.80310098E-01
  1.51389341E-01 -3.41849948E-15  1.65565170E+00 -1.39009418E+00  3.52843772E-15
 -1.07449199E-16 -1.74327607E-02  1.46366409E-02 -1.99958113E-17 -9.10548758E-18
 -2.94031434E-17  8.73166729E-02 -7.33115543E-02 -3.44705721E-16  7.83749350E-17
  1.51351808E-16  1.51204520E-15 -3.52214378E-14 -4.23955210E-14  7.08126096E-02
  8.43403407E-02  3.71669594E-16 -1.43373310E-01 -1.70762719E-01  2.99121217E-14
 -8.83243357E-01 -1.05197430E+00  2.36434940E-14 -1.39429802E-15  1.12255024E-02
  1.33699733E-02 -8.90544543E-17 -5.78321822E-16 -1.11647357E-14  2.18786767E-01
  2.60582834E-01 -1.51219736E-15 -1.72343470E-15  4.23028767E-16 -3.19696015E-15
  1.61170596E-14  8.07119861E-14 -1.51533582E-01 -1.80481894E-01  1.31454324E-15
 -1.51389341E-01 -1.80310098E-01  1.47596163E-14  1.39009418E+00  1.65565170E+00
 -1.19571859E-14  4.32443197E-16 -1.46366409E-02 -1.74327607E-02  2.82602649E-16
  1.69431613E-16  3.27535367E-16  7.33115543E-02  8.73166729E-02  7.05269411E-18
 -5.73452178E-16  3.10770709E-02  1.50476014E-02 -2.68759304E+00 -3.85274898E+00
 -3.71016603E-15  3.00365249E-15 -2.43329973E-02  4.79409377E-15 -2.38204559E-15
  1.33148908E+00  7.55291348E-15  2.50242734E-14  1.49380634E+00 -7.09921573E-02
 -9.07217042E-16  1.08654345E-15 -1.38801345E-16 -6.10473558E-16 -6.43956203E-01
 -5.11558269E-15 -3.68481418E-15  6.12188878E-16 -1.24075460E-14  5.73071249E-02
 -2.05140570E-01  2.73273259E-01  6.80500926E+00  2.78212628E-15  4.52572579E-16
  1.78593381E-02 -2.97122152E-16  5.05799946E-15  7.07189191E-01 -1.54751374E-14
 -2.87599175E-14  8.29842690E-01 -1.19238825E-03  1.67357724E-16  2.01825231E-16
 -1.28510513E-17  4.05330390E-16  5.99157924E-02 -3.49499286E-15  1.55316827E-15
 -4.57523028E-16  2.66040632E-15  1.19180218E-16 -7.45309152E-16 -1.59958747E-14
  1.95595963E-14  1.47931488E-15  2.24237402E-17  1.52342093E-15 -5.36684506E-15
  2.51639605E-15  1.54992896E-14 -1.32360287E-15  2.58844978E-16 -1.53061935E-14
 -5.45580513E-16  1.24526309E-16 -2.53188524E-16 -2.16354484E-02  1.97574445E-02
  5.84888649E-15  7.00778918E-15 -2.68367357E-15  7.48725075E-01 -6.83734111E-01
 -1.12934139E-15  1.02876765E-15  1.79617309E-14 -2.31154610E-14  9.42331335E-16
 -2.13701204E-16  1.25208489E-15  4.80580089E-15 -2.21402908E-15  7.12469865E-15
  1.37719375E-15 -1.16069754E-15  2.63128346E-15  2.64648033E-16  7.66537217E-17
 -9.21025535E-17  1.66770746E-02 -1.52294683E-02  1.73255767E-15  7.31585305E-16
 -5.74846250E-16 -3.31334892E-03  3.02574303E-03 -4.29571351E-16 -4.21391003E-16
  1.97625260E-14 -1.83257567E-14 -1.77418804E-15 -1.61288101E-15 -1.45113545E-15
 -1.74075144E-15  1.17451441E-15 -2.00072966E-14 -1.95537427E-15 -8.64292345E-15
  1.47652375E-14  6.71233154E-16 -3.42184853E-17  1.81410314E-16 -1.97574445E-02
 -2.16354484E-02 -3.61159860E-15  9.22648761E-15  3.03793756E-15  6.83734111E-01
  7.48725075E-01  1.27931462E-15 -1.04409871E-15 -2.27770251E-14  2.12917902E-14
  8.58129053E-16 -3.61970887E-16 -1.46415212E-15  4.52610183E-15 -1.86056918E-17
 -7.44951859E-15  3.48072090E-15  9.69992848E-15 -2.04117098E-15 -4.25656792E-16
 -2.29108995E-16 -3.25509528E-17  1.52294683E-02  1.66770746E-02 -3.02915539E-16
  1.01136024E-15 -1.67718767E-16 -3.02574303E-03 -3.31334892E-03  5.10733039E-02
 -1.74182950E-01 -2.76335296E+00 -1.77480831E+00 -5.27541643E-15  6.88559505E-15
  1.80991421E-02  1.64746701E-14 -1.19173419E-14  1.60652636E+00  3.68001965E-15
  1.27560877E-14 -2.23754435E-01 -4.15021565E-02 -1.63779094E-15  1.44876518E-15
 -5.50792356E-16 -1.46084853E-15  8.17474226E-01 -1.28730173E-14 -1.30125183E-15
 -2.42701310E-16  1.19170991E-14 -2.08874908E-02  3.67636415E-02  2.93123767E-01
  3.82710716E+00  4.65011879E-16 -7.73507415E-16  2.16409661E-01 -8.60505232E-15
  4.50999485E-15  8.71253106E-01 -1.32408846E-14 -8.58929429E-15  1.50160322E+00
  1.09455642E-02  2.03169208E-16 -4.16819710E-16  5.51340601E-17  9.45827058E-16
  1.20586274E-01 -5.46951259E-15  4.06476234E-15  2.14249439E-16  3.25555963E-15
 -8.40705505E-16 -2.56162908E-16  4.05980623E-14  2.87723772E-14 -2.00911985E-01
  1.39120614E-01  8.57938042E-16 -5.58290128E-01  3.86585526E-01 -4.54527769E-14
 -5.22281472E-01  3.61651492E-01 -8.54773918E-15  1.09332035E-15 -8.34310504E-03
  5.77714613E-03  6.51529107E-16  5.29856434E-16  2.43941053E-14  1.35358089E+00
 -9.37281091E-01 -7.64677273E-15 -9.31841815E-16  1.02067581E-15  2.39470291E-15
 -4.64277774E-14 -4.51930188E-14  1.46557003E-01 -1.01482748E-01 -2.78138305E-16
  7.45718587E-01 -5.16369532E-01 -1.02166716E-14  8.09866267E-01 -5.60788309E-01
  1.49659368E-15 -3.63390949E-16 -2.12630015E-02  1.47234712E-02  1.50945000E-16
  3.52764793E-16  1.22261039E-16  6.19645523E-02 -4.29070798E-02 -3.46219511E-16
  3.19291530E-16 -5.10592123E-16 -1.99440245E-15  3.01355474E-14  7.86602215E-15
 -1.39120614E-01 -2.00911985E-01 -1.46357762E-16 -3.86585526E-01 -5.58290128E-01
 -3.80199117E-14 -3.61651492E-01 -5.22281472E-01 -3.13983679E-15  1.53125473E-15
 -5.77714613E-03 -8.34310504E-03 -4.38032948E-17 -1.49621690E-16  2.58539015E-14
  9.37281091E-01  1.35358089E+00 -5.55773631E-15 -3.25780103E-15  1.23484683E-15
  2.58842365E-15 -4.97828606E-14 -1.03836381E-14  1.01482748E-01  1.46557003E-01
  9.95418159E-16  5.16369532E-01  7.45718587E-01 -7.79330677E-15  5.60788309E-01
  8.09866267E-01  8.54149686E-15 -5.21488841E-16 -1.47234712E-02 -2.12630015E-02
 -6.13314403E-17 -1.38097058E-16  4.42383274E-16  4.29070798E-02  6.19645523E-02
  1.37939831E-15  5.83079210E-17  7.59852382E-02 -1.85567183E-01 -2.81870363E+00
 -2.03736691E+00 -3.43371140E-14  2.33417207E-14 -2.34483624E-01  6.50220889E-14
 -6.61044735E-14  3.75716147E+00 -1.28204013E-14  1.35030172E-14  3.98284217E-01
 -6.80738421E-02 -5.51530257E-15  4.52721834E-15 -1.26649642E-15 -2.25429178E-15
 -1.83198125E+00  6.80621925E-16  2.60804410E-14  1.13050356E-15  4.05727663E-15
 -8.93663954E-02 -7.47204272E-02  3.52426986E+00  3.13810154E+00  3.64237209E-15
 -2.14077465E-16  3.70134168E-02 -9.51386834E-15  2.91239935E-14  7.09516251E-01
 -1.73365529E-14  1.53621731E-14 -1.06269612E-01  3.98325276E-02 -7.42443605E-17
 -8.57147500E-16  2.66976193E-16  1.11930132E-15  2.86304924E-03 -2.29470225E-14
  1.91094708E-14 -2.93422946E-16  9.33644124E-15 -2.81813291E-15  1.23747830E-14
  7.05116607E-14  7.35103282E-14 -8.00902029E-01 -2.08799796E-01  1.17310395E-14
  1.98280324E+00  5.16928284E-01 -1.11241598E-13 -5.06756661E-02 -1.32114396E-02
 -1.24530184E-14  1.55835536E-15 -1.01333365E-01 -2.64181951E-02  4.49452766E-16
  6.50098407E-16  4.67650815E-14 -6.72669954E-01 -1.75368952E-01 -4.99047944E-16
 -3.23365261E-15  2.20128586E-15 -1.50481262E-17 -8.71264183E-14 -1.10130340E-13
 -6.16036005E-03 -1.60604153E-03 -2.72089903E-15 -6.06558065E-01 -1.58133200E-01
 -1.76130051E-14 -8.50922198E-01 -2.21840344E-01 -1.74473727E-15 -1.31331942E-15
  2.26439913E-03  5.90341963E-04 -3.57602643E-16 -5.75178580E-17  1.68110414E-15
 -5.27264937E-01 -1.37461022E-01  4.09087342E-15  1.83141383E-15  4.72971169E-15
 -2.12489437E-14 -9.15297560E-14 -1.20611873E-13  2.08799796E-01 -8.00902029E-01
 -1.91575921E-14 -5.16928284E-01  1.98280324E+00  1.57061994E-13  1.32114396E-02
 -5.06756661E-02  2.13454509E-14 -2.17320180E-15  2.64181951E-02 -1.01333365E-01
  5.43807926E-16  1.24843984E-15 -6.34145989E-14  1.75368952E-01 -6.72669954E-01
 -2.39968149E-15 -3.77366582E-15 -2.67490718E-15 -2.49644997E-15  1.17549417E-13
  1.72648026E-13  1.60604153E-03 -6.16036005E-03  5.51450989E-15  1.58133200E-01
 -6.06558065E-01  2.17564133E-14  2.21840344E-01 -8.50922198E-01  7.49607169E-15
  1.96226190E-15 -5.90341963E-04  2.26439913E-03  9.23337735E-17 -5.44585060E-16
 -6.64735790E-15  1.37461022E-01 -5.27264937E-01 -7.61701015E-16  5.99476848E-15
  1.21657809E-01 -4.16535388E-01  1.06657325E+00  6.86991492E-02 -3.73558107E-15