fubar
SP        RPBEPBE                                                     6-31+G(d,p)
Number of atoms                            I                1
Info1-9                                    I   N=           9
          11          10           0           0           0         110
           1          18         902
Full Title                                 C   N=           1
fubar
Route                                      C   N=           3
#PBEPBE/6-31+g** scf=tight
Charge                                     I                1
Multiplicity                               I                1
Number of electrons                        I                4
Number of alpha electrons                  I                2
Number of beta electrons                   I                2
Number of basis functions                  I               19
Number of independent functions            I               19
Number of point charges in /Mol/           I                0
Number of translation vectors              I                0
Atomic numbers                             I   N=           1
           5
Nuclear charges                            R   N=           1
  5.00000000E+00
Current cartesian coordinates              R   N=           3
  0.00000000E+00  0.00000000E+00  0.00000000E+00
Number of symbols in /Mol/                 I                0
Int Atom Types                             I   N=           1
           0
Force Field                                I                0
Atom Types                                 C   N=           1

MM charges                                 R   N=           1
  0.00000000E+00
Integer atomic weights                     I   N=           1
          11
Real atomic weights                        R   N=           1
  1.10093053E+01
Atom fragment info                         I   N=           1
           0
Atom residue num                           I   N=           1
           0
Nuclear spins                              I   N=           1
           3
Nuclear ZEff                               R   N=           1
 -2.75000000E+00
Nuclear ZNuc                               R   N=           1
  5.00000000E+00
Nuclear QMom                               R   N=           1
  4.05900000E+00
Nuclear GFac                               R   N=           1
  2.68863700E+00
MicOpt                                     I   N=           1
          -1
Number of residues                         I                0
Number of secondary structures             I                0
SymInf integers                            I   N=          26
           1           8           1           1           1           1
          -1          -1          -1           1          -1          -1
          -1           1          -1          -1          -1          -1
           1           1           1          -1           1           1
           1          -1
RotTr to input orientation                 R   N=          12
  0.00000000E+00  0.00000000E+00 -1.00000000E+00  0.00000000E+00  1.00000000E+00
  0.00000000E+00  1.00000000E+00  0.00000000E+00  0.00000000E+00  0.00000000E+00
  0.00000000E+00  0.00000000E+00
Number of contracted shells                I                5
Number of primitive shells                 I               12
Pure/Cartesian d shells                    I                1
Pure/Cartesian f shells                    I                0
Highest angular momentum                   I                2
Largest degree of contraction              I                6
Shell types                                I   N=           5
           0          -1          -1          -1           2
Number of primitives per shell             I   N=           5
           6           3           1           1           1
Shell to atom map                          I   N=           5
           1           1           1           1           1
Primitive exponents                        R   N=          12
  2.06888225E+03  3.10649570E+02  7.06830330E+01  1.98610803E+01  6.29930484E+00
  2.12702697E+00  4.72797107E+00  1.19033774E+00  3.59411683E-01  1.26751247E-01
  3.15000000E-02  6.00000000E-01
Contraction coefficients                   R   N=          12
  1.86627459E-03  1.42514817E-02  6.95516185E-02  2.32572933E-01  4.67078712E-01
  3.63431440E-01 -1.30393797E-01 -1.30788951E-01  1.13094448E+00  1.00000000E+00
  1.00000000E+00  1.00000000E+00
P(S=P) Contraction coefficients            R   N=          12
  0.00000000E+00  0.00000000E+00  0.00000000E+00  0.00000000E+00  0.00000000E+00
  0.00000000E+00  7.45975799E-02  3.07846677E-01  7.43456834E-01  1.00000000E+00
  1.00000000E+00  0.00000000E+00
Coordinates of each shell                  R   N=          15
  0.00000000E+00  0.00000000E+00  0.00000000E+00  0.00000000E+00  0.00000000E+00
  0.00000000E+00  0.00000000E+00  0.00000000E+00  0.00000000E+00  0.00000000E+00
  0.00000000E+00  0.00000000E+00  0.00000000E+00  0.00000000E+00  0.00000000E+00
Num ILSW                                   I              100
ILSW                                       I   N=         100
           0           1           0           0           2           0
           0           0           0           0        1009          -1
           5           0           0           0           0           0
           0           0           0           0           0           0
           1           0           0           0           0           0
           0           0      100000           0          -1           0
           0           0           0           0           0           0
           0           0           0           1           0           0
           0 -2000000000           1           0           0           0
           0           0           4          52           0           0
           0           0           0           0           0           0
           0           0           0           1           0           1
           0           0           0           0           0           0
           0           0           0           0           0           0
           0           0           0           0           0           0
           0           0           0           0           0           0
           0           0           0           0
Num RLSW                                   I               52
RLSW                                       R   N=          52
  1.00000000E+00  1.00000000E+00  1.00000000E+00  1.00000000E+00  0.00000000E+00
  0.00000000E+00  0.00000000E+00  1.00000000E+00  0.00000000E+00  0.00000000E+00
  0.00000000E+00  0.00000000E+00  1.00000000E+00  0.00000000E+00  0.00000000E+00
  0.00000000E+00  0.00000000E+00  1.00000000E+00  0.00000000E+00  0.00000000E+00
  0.00000000E+00  0.00000000E+00  1.00000000E+00  0.00000000E+00  0.00000000E+00
  0.00000000E+00  0.00000000E+00  1.00000000E+00  0.00000000E+00  0.00000000E+00
  0.00000000E+00  0.00000000E+00  1.00000000E+00  0.00000000E+00  0.00000000E+00
  0.00000000E+00  0.00000000E+00  0.00000000E+00  1.00000000E+00  1.00000000E+00
  0.00000000E+00  1.00000000E+00  0.00000000E+00  0.00000000E+00  0.00000000E+00
  0.00000000E+00  0.00000000E+00  0.00000000E+00  0.00000000E+00  0.00000000E+00
  0.00000000E+00  0.00000000E+00
MxBond                                     I                1
NBond                                      I   N=           1
           0
IBond                                      I   N=           1
           0
RBond                                      R   N=           1
  0.00000000E+00
Virial Ratio                               R      2.009147732171237E+00
SCF Energy                                 R     -2.428938934327190E+01
Total Energy                               R     -2.428938934327190E+01
RMS Density                                R      6.282279029410630E-09
Job Status                                 I                1
Nuclear derivative order                   I                0
External E-field                           R   N=          35
  0.00000000E+00  0.00000000E+00  0.00000000E+00  0.00000000E+00  0.00000000E+00
  0.00000000E+00  0.00000000E+00  0.00000000E+00  0.00000000E+00  0.00000000E+00
  0.00000000E+00  0.00000000E+00  0.00000000E+00  0.00000000E+00  0.00000000E+00
  0.00000000E+00  0.00000000E+00  0.00000000E+00  0.00000000E+00  0.00000000E+00
  0.00000000E+00  0.00000000E+00  0.00000000E+00  0.00000000E+00  0.00000000E+00
  0.00000000E+00  0.00000000E+00  0.00000000E+00  0.00000000E+00  0.00000000E+00
  0.00000000E+00  0.00000000E+00  0.00000000E+00  0.00000000E+00  0.00000000E+00
IOpCl                                      I                0
IROHF                                      I                0
Alpha Orbital Energies                     R   N=          19
 -7.12099246E+00 -7.17840906E-01 -4.90669885E-01 -4.90669885E-01 -4.90669885E-01
 -1.57738314E-01 -1.12159012E-01 -1.12159012E-01 -1.12159012E-01  1.70437705E-01
  1.70437705E-01  1.70437705E-01  2.93048426E-01  7.91732722E-01  7.91732722E-01
  7.91732722E-01  7.91732722E-01  7.91732722E-01  2.80264968E+00
Alpha MO coefficients                      R   N=         361
  9.92622692E-01  5.63294436E-02  0.00000000E+00  0.00000000E+00  0.00000000E+00
 -1.42546391E-02  0.00000000E+00  0.00000000E+00  0.00000000E+00  3.10261406E-03
  0.00000000E+00  0.00000000E+00  0.00000000E+00 -1.04182444E-02 -1.04182444E-02
 -1.04182444E-02  0.00000000E+00  0.00000000E+00  0.00000000E+00 -2.44927979E-01
  5.70227448E-01  0.00000000E+00  0.00000000E+00  0.00000000E+00  4.94606049E-01
  0.00000000E+00  0.00000000E+00  0.00000000E+00  1.58468830E-03  0.00000000E+00
  0.00000000E+00  0.00000000E+00  1.32693966E-04  1.32693966E-04  1.32693966E-04
  0.00000000E+00  0.00000000E+00  0.00000000E+00  0.00000000E+00  0.00000000E+00
  0.00000000E+00  0.00000000E+00  7.50736964E-01  0.00000000E+00  0.00000000E+00
  0.00000000E+00  3.29467150E-01  0.00000000E+00  0.00000000E+00  0.00000000E+00
  2.86278410E-02  0.00000000E+00  0.00000000E+00  0.00000000E+00  0.00000000E+00
  0.00000000E+00  0.00000000E+00  0.00000000E+00  0.00000000E+00  0.00000000E+00
  7.50736964E-01  0.00000000E+00  0.00000000E+00  0.00000000E+00  3.29467150E-01
  0.00000000E+00  0.00000000E+00  0.00000000E+00  2.86278410E-02  0.00000000E+00
  0.00000000E+00  0.00000000E+00  0.00000000E+00  0.00000000E+00  0.00000000E+00
  0.00000000E+00  0.00000000E+00  0.00000000E+00  7.50736964E-01  0.00000000E+00
  0.00000000E+00  0.00000000E+00  3.29467150E-01  0.00000000E+00  0.00000000E+00
  0.00000000E+00  2.86278410E-02  0.00000000E+00  0.00000000E+00  0.00000000E+00
  0.00000000E+00  0.00000000E+00  0.00000000E+00  0.00000000E+00  0.00000000E+00
  7.78917267E-02 -3.70752736E-01  0.00000000E+00  0.00000000E+00  0.00000000E+00
 -4.17117423E-01  0.00000000E+00  0.00000000E+00  0.00000000E+00  1.25560807E+00
  0.00000000E+00  0.00000000E+00  0.00000000E+00  5.45529983E-03  5.45529983E-03
  5.45529983E-03  0.00000000E+00  0.00000000E+00  0.00000000E+00  0.00000000E+00
  0.00000000E+00  0.00000000E+00 -3.72197250E-01  0.00000000E+00  0.00000000E+00
  0.00000000E+00  9.46054790E-03  0.00000000E+00  0.00000000E+00  0.00000000E+00
  9.94411966E-01  0.00000000E+00  0.00000000E+00  0.00000000E+00  0.00000000E+00
  0.00000000E+00  0.00000000E+00  0.00000000E+00  0.00000000E+00  0.00000000E+00
  0.00000000E+00  0.00000000E+00 -3.72197250E-01  0.00000000E+00  0.00000000E+00
  0.00000000E+00  9.46054790E-03  0.00000000E+00  0.00000000E+00  0.00000000E+00
  9.94411966E-01  0.00000000E+00  0.00000000E+00  0.00000000E+00  0.00000000E+00
  0.00000000E+00  0.00000000E+00  0.00000000E+00  0.00000000E+00 -3.72197250E-01
  0.00000000E+00  0.00000000E+00  0.00000000E+00  9.46054790E-03  0.00000000E+00
  0.00000000E+00  0.00000000E+00  9.94411966E-01  0.00000000E+00  0.00000000E+00
  0.00000000E+00  0.00000000E+00  0.00000000E+00  0.00000000E+00  0.00000000E+00
  0.00000000E+00  0.00000000E+00  0.00000000E+00 -1.03195981E+00  0.00000000E+00
  0.00000000E+00  0.00000000E+00  1.55654755E+00  0.00000000E+00  0.00000000E+00
  0.00000000E+00 -7.80704073E-01  0.00000000E+00  0.00000000E+00  0.00000000E+00
  0.00000000E+00  0.00000000E+00  0.00000000E+00  0.00000000E+00  0.00000000E+00
  0.00000000E+00  0.00000000E+00  0.00000000E+00 -1.03195981E+00  0.00000000E+00
  0.00000000E+00  0.00000000E+00  1.55654755E+00  0.00000000E+00  0.00000000E+00
  0.00000000E+00 -7.80704073E-01  0.00000000E+00  0.00000000E+00  0.00000000E+00
  0.00000000E+00  0.00000000E+00  0.00000000E+00  0.00000000E+00  0.00000000E+00
  0.00000000E+00  0.00000000E+00  0.00000000E+00 -1.03195981E+00  0.00000000E+00
  0.00000000E+00  0.00000000E+00  1.55654755E+00  0.00000000E+00  0.00000000E+00
  0.00000000E+00 -7.80704073E-01  0.00000000E+00  0.00000000E+00  0.00000000E+00
  0.00000000E+00  0.00000000E+00  0.00000000E+00 -3.15073139E-04 -2.01337765E+00
  0.00000000E+00  0.00000000E+00  0.00000000E+00  2.73835363E+00  0.00000000E+00
  0.00000000E+00  0.00000000E+00 -1.06122513E+00  0.00000000E+00  0.00000000E+00
  0.00000000E+00 -2.43787136E-02 -2.43787136E-02 -2.43787136E-02  0.00000000E+00
  0.00000000E+00  0.00000000E+00  0.00000000E+00  0.00000000E+00  0.00000000E+00
  0.00000000E+00  0.00000000E+00  0.00000000E+00  0.00000000E+00  0.00000000E+00
  0.00000000E+00  0.00000000E+00  0.00000000E+00  0.00000000E+00  0.00000000E+00
  0.00000000E+00  0.00000000E+00  0.00000000E+00  1.00000000E+00  0.00000000E+00
  0.00000000E+00  0.00000000E+00  0.00000000E+00  0.00000000E+00  0.00000000E+00
  0.00000000E+00  0.00000000E+00  0.00000000E+00  0.00000000E+00  0.00000000E+00
  0.00000000E+00  0.00000000E+00  0.00000000E+00  0.00000000E+00  0.00000000E+00
  0.00000000E+00  0.00000000E+00  0.00000000E+00  1.00000000E+00  0.00000000E+00
  0.00000000E+00  0.00000000E+00  0.00000000E+00  0.00000000E+00  0.00000000E+00
  0.00000000E+00  0.00000000E+00  0.00000000E+00  0.00000000E+00  0.00000000E+00
  0.00000000E+00  0.00000000E+00  0.00000000E+00  0.00000000E+00  0.00000000E+00
  0.00000000E+00  0.00000000E+00  0.00000000E+00  1.00000000E+00  8.09025994E-17
 -4.60717439E-16  0.00000000E+00  0.00000000E+00  0.00000000E+00 -7.32691875E-16
  0.00000000E+00  0.00000000E+00  0.00000000E+00  4.93480003E-16  0.00000000E+00
  0.00000000E+00  0.00000000E+00  9.63848412E-01 -2.51170704E-01 -7.12677709E-01
  0.00000000E+00  0.00000000E+00  0.00000000E+00  1.68358759E-16 -3.60732203E-15
  0.00000000E+00  0.00000000E+00  0.00000000E+00  1.94343700E-15  0.00000000E+00
  0.00000000E+00  0.00000000E+00 -5.17532282E-16  0.00000000E+00  0.00000000E+00
  0.00000000E+00 -2.66451194E-01  9.67942807E-01 -7.01491613E-01  0.00000000E+00
  0.00000000E+00  0.00000000E+00 -4.73897034E-01  4.10858991E+00  0.00000000E+00
  0.00000000E+00  0.00000000E+00  6.75308430E-01  0.00000000E+00  0.00000000E+00
  0.00000000E+00 -2.28554978E-01  0.00000000E+00  0.00000000E+00  0.00000000E+00
 -2.06493911E+00 -2.06493911E+00 -2.06493911E+00  0.00000000E+00  0.00000000E+00
  0.00000000E+00
Orthonormal basis                          R   N=         361
  6.07312040E-02  2.52111690E-01  0.00000000E+00  0.00000000E+00  0.00000000E+00
  2.50779529E-01  0.00000000E+00  0.00000000E+00  0.00000000E+00  1.67411191E-01
  0.00000000E+00  0.00000000E+00  0.00000000E+00  1.87610854E-01  1.87610854E-01
  1.87610854E-01  0.00000000E+00  0.00000000E+00  0.00000000E+00  9.96289907E-01
  2.89352924E-02  0.00000000E+00  0.00000000E+00  0.00000000E+00 -3.50646004E-02
  0.00000000E+00  0.00000000E+00  0.00000000E+00 -1.54019262E-01  0.00000000E+00
  0.00000000E+00  0.00000000E+00 -5.90278200E-02 -5.90278200E-02 -5.90278200E-02
  0.00000000E+00  0.00000000E+00  0.00000000E+00  1.19240407E-01 -3.18056307E-01
  0.00000000E+00  0.00000000E+00  0.00000000E+00  2.28215546E-01  0.00000000E+00
  0.00000000E+00  0.00000000E+00  9.53647131E-01  0.00000000E+00  0.00000000E+00
  0.00000000E+00 -2.55740160E-01 -2.55740160E-01 -2.55740160E-01  0.00000000E+00
  0.00000000E+00  0.00000000E+00 -8.26541259E-18  9.96434449E-17  0.00000000E+00
  0.00000000E+00  0.00000000E+00 -1.95282793E-16  0.00000000E+00  0.00000000E+00
  0.00000000E+00 -4.76471061E-16  0.00000000E+00  0.00000000E+00  0.00000000E+00
 -8.33609523E-01 -6.15480087E-02  8.95157531E-01  0.00000000E+00  0.00000000E+00
  0.00000000E+00  7.47312445E-18 -5.22431812E-17  0.00000000E+00  0.00000000E+00
  0.00000000E+00  4.86730027E-17  0.00000000E+00  0.00000000E+00  0.00000000E+00
  4.65560891E-17  0.00000000E+00  0.00000000E+00  0.00000000E+00 -5.52354201E-01
  9.98104124E-01 -4.45749923E-01  0.00000000E+00  0.00000000E+00  0.00000000E+00
 -1.84519472E-01 -6.86302945E-01  0.00000000E+00  0.00000000E+00  0.00000000E+00
  2.87267869E+00  0.00000000E+00  0.00000000E+00  0.00000000E+00 -1.33921742E+00
  0.00000000E+00  0.00000000E+00  0.00000000E+00 -5.54299740E-01 -5.54299740E-01
 -5.54299740E-01  0.00000000E+00  0.00000000E+00  0.00000000E+00 -4.81027622E-01
  4.55668975E+00  0.00000000E+00  0.00000000E+00  0.00000000E+00 -7.04434161E-02
  0.00000000E+00  0.00000000E+00  0.00000000E+00  1.74735284E-02  0.00000000E+00
  0.00000000E+00  0.00000000E+00 -1.96300098E+00 -1.96300098E+00 -1.96300098E+00
  0.00000000E+00  0.00000000E+00  0.00000000E+00  0.00000000E+00  0.00000000E+00
  0.00000000E+00  0.00000000E+00  0.00000000E+00  0.00000000E+00  0.00000000E+00
  0.00000000E+00  0.00000000E+00  0.00000000E+00  0.00000000E+00  0.00000000E+00
  0.00000000E+00  0.00000000E+00  0.00000000E+00  0.00000000E+00  1.00000000E+00
  0.00000000E+00  0.00000000E+00  0.00000000E+00  0.00000000E+00  0.00000000E+00
  0.00000000E+00  0.00000000E+00  0.00000000E+00  0.00000000E+00  0.00000000E+00
  0.00000000E+00  0.00000000E+00  0.00000000E+00  0.00000000E+00  0.00000000E+00
  0.00000000E+00  0.00000000E+00  0.00000000E+00  0.00000000E+00  1.00000000E+00
  0.00000000E+00  0.00000000E+00  0.00000000E+00  0.00000000E+00  0.00000000E+00
  0.00000000E+00  0.00000000E+00  0.00000000E+00  0.00000000E+00  0.00000000E+00
  0.00000000E+00  0.00000000E+00  0.00000000E+00  0.00000000E+00  0.00000000E+00
  0.00000000E+00  0.00000000E+00  0.00000000E+00  0.00000000E+00  1.00000000E+00
  0.00000000E+00  0.00000000E+00  0.00000000E+00  0.00000000E+00  3.88923426E-01
  0.00000000E+00  0.00000000E+00  0.00000000E+00  4.79994428E-01  0.00000000E+00
  0.00000000E+00  0.00000000E+00  3.65895389E-01  0.00000000E+00  0.00000000E+00
  0.00000000E+00  0.00000000E+00  0.00000000E+00  0.00000000E+00  0.00000000E+00
  0.00000000E+00  0.00000000E+00  0.00000000E+00 -7.41076485E-01  0.00000000E+00
  0.00000000E+00  0.00000000E+00 -2.33564121E-02  0.00000000E+00  0.00000000E+00
  0.00000000E+00  8.18356725E-01  0.00000000E+00  0.00000000E+00  0.00000000E+00
  0.00000000E+00  0.00000000E+00  0.00000000E+00  0.00000000E+00  0.00000000E+00
  0.00000000E+00  0.00000000E+00 -1.03277396E+00  0.00000000E+00  0.00000000E+00
  0.00000000E+00  1.51675252E+00  0.00000000E+00  0.00000000E+00  0.00000000E+00
 -8.91956499E-01  0.00000000E+00  0.00000000E+00  0.00000000E+00  0.00000000E+00
  0.00000000E+00  0.00000000E+00  0.00000000E+00  0.00000000E+00  0.00000000E+00
  3.88923426E-01  0.00000000E+00  0.00000000E+00  0.00000000E+00  4.79994428E-01
  0.00000000E+00  0.00000000E+00  0.00000000E+00  3.65895389E-01  0.00000000E+00
  0.00000000E+00  0.00000000E+00  0.00000000E+00  0.00000000E+00  0.00000000E+00
  0.00000000E+00  0.00000000E+00  0.00000000E+00  0.00000000E+00 -7.41076485E-01
  0.00000000E+00  0.00000000E+00  0.00000000E+00 -2.33564121E-02  0.00000000E+00
  0.00000000E+00  0.00000000E+00  8.18356725E-01  0.00000000E+00  0.00000000E+00
  0.00000000E+00  0.00000000E+00  0.00000000E+00  0.00000000E+00  0.00000000E+00
  0.00000000E+00  0.00000000E+00  0.00000000E+00 -1.03277396E+00  0.00000000E+00
  0.00000000E+00  0.00000000E+00  1.51675252E+00  0.00000000E+00  0.00000000E+00
  0.00000000E+00 -8.91956499E-01  0.00000000E+00  0.00000000E+00  0.00000000E+00
  0.00000000E+00  0.00000000E+00  0.00000000E+00  0.00000000E+00  0.00000000E+00
  0.00000000E+00  3.88923426E-01  0.00000000E+00  0.00000000E+00  0.00000000E+00
  4.79994428E-01  0.00000000E+00  0.00000000E+00  0.00000000E+00  3.65895389E-01
  0.00000000E+00  0.00000000E+00  0.00000000E+00  0.00000000E+00  0.00000000E+00
  0.00000000E+00  0.00000000E+00  0.00000000E+00  0.00000000E+00  0.00000000E+00
 -7.41076485E-01  0.00000000E+00  0.00000000E+00  0.00000000E+00 -2.33564121E-02
  0.00000000E+00  0.00000000E+00  0.00000000E+00  8.18356725E-01  0.00000000E+00
  0.00000000E+00  0.00000000E+00  0.00000000E+00  0.00000000E+00  0.00000000E+00
  0.00000000E+00  0.00000000E+00  0.00000000E+00  0.00000000E+00 -1.03277396E+00
  0.00000000E+00  0.00000000E+00  0.00000000E+00  1.51675252E+00  0.00000000E+00
  0.00000000E+00  0.00000000E+00 -8.91956499E-01  0.00000000E+00  0.00000000E+00
  0.00000000E+00  0.00000000E+00  0.00000000E+00  0.00000000E+00  0.00000000E+00
  0.00000000E+00
Total SCF Density                          R   N=         190
  2.09057905E+00 -1.67501545E-01  6.56664698E-01  0.00000000E+00  0.00000000E+00
  0.00000000E+00  0.00000000E+00  0.00000000E+00  0.00000000E+00  0.00000000E+00
  0.00000000E+00  0.00000000E+00  0.00000000E+00  0.00000000E+00  0.00000000E+00
 -2.70584676E-01  5.62469978E-01  0.00000000E+00  0.00000000E+00  0.00000000E+00
  4.89676677E-01  0.00000000E+00  0.00000000E+00  0.00000000E+00  0.00000000E+00
  0.00000000E+00  0.00000000E+00  0.00000000E+00  0.00000000E+00  0.00000000E+00
  0.00000000E+00  0.00000000E+00  0.00000000E+00  0.00000000E+00  0.00000000E+00
  0.00000000E+00  0.00000000E+00  0.00000000E+00  0.00000000E+00  0.00000000E+00
  0.00000000E+00  0.00000000E+00  0.00000000E+00  0.00000000E+00  0.00000000E+00
  5.38318124E-03  2.15680257E-03  0.00000000E+00  0.00000000E+00  0.00000000E+00
  1.47913955E-03  0.00000000E+00  0.00000000E+00  0.00000000E+00  2.42749020E-05
  0.00000000E+00  0.00000000E+00  0.00000000E+00  0.00000000E+00  0.00000000E+00
  0.00000000E+00  0.00000000E+00  0.00000000E+00  0.00000000E+00  0.00000000E+00
  0.00000000E+00  0.00000000E+00  0.00000000E+00  0.00000000E+00  0.00000000E+00
  0.00000000E+00  0.00000000E+00  0.00000000E+00  0.00000000E+00  0.00000000E+00
  0.00000000E+00  0.00000000E+00  0.00000000E+00  0.00000000E+00  0.00000000E+00
  0.00000000E+00  0.00000000E+00  0.00000000E+00  0.00000000E+00  0.00000000E+00
  0.00000000E+00  0.00000000E+00  0.00000000E+00  0.00000000E+00  0.00000000E+00
  0.00000000E+00 -2.07477725E-02 -1.02237634E-03  0.00000000E+00  0.00000000E+00
  0.00000000E+00  4.28279104E-04  0.00000000E+00  0.00000000E+00  0.00000000E+00
 -6.42270260E-05  0.00000000E+00  0.00000000E+00  0.00000000E+00  2.17114848E-04
 -2.07477725E-02 -1.02237634E-03  0.00000000E+00  0.00000000E+00  0.00000000E+00
  4.28279104E-04  0.00000000E+00  0.00000000E+00  0.00000000E+00 -6.42270260E-05
  0.00000000E+00  0.00000000E+00  0.00000000E+00  2.17114848E-04  2.17114848E-04
 -2.07477725E-02 -1.02237634E-03  0.00000000E+00  0.00000000E+00  0.00000000E+00
  4.28279104E-04  0.00000000E+00  0.00000000E+00  0.00000000E+00 -6.42270260E-05
  0.00000000E+00  0.00000000E+00  0.00000000E+00  2.17114848E-04  2.17114848E-04
  2.17114848E-04 -1.31082641E-19 -6.45928572E-21  0.00000000E+00  0.00000000E+00
  0.00000000E+00  2.70583052E-21  0.00000000E+00  0.00000000E+00  0.00000000E+00
 -4.05780823E-22  0.00000000E+00  0.00000000E+00  0.00000000E+00  1.37171293E-21
  1.37171293E-21  1.37171293E-21  4.46235061E-36  6.65734986E-22  3.28050491E-23
  0.00000000E+00  0.00000000E+00  0.00000000E+00 -1.37422165E-23  0.00000000E+00
  0.00000000E+00  0.00000000E+00  2.06085632E-24  0.00000000E+00  0.00000000E+00
  0.00000000E+00 -6.96657678E-24 -6.96657678E-24 -6.96657678E-24  7.20137299E-39
  1.60497686E-36 -2.36184547E-20 -1.16383333E-21  0.00000000E+00  0.00000000E+00
  0.00000000E+00  4.87536221E-22  0.00000000E+00  0.00000000E+00  0.00000000E+00
 -7.31135404E-23  0.00000000E+00  0.00000000E+00  0.00000000E+00  2.47155072E-22
  2.47155072E-22  2.47155072E-22  4.19726777E-38 -3.54311646E-37  1.75365170E-36
Mulliken Charges                           R   N=           1
  1.00000000E+00
ONIOM Charges                              I   N=          16
           1           0           0           0           0           0
           0           0           0           0           0           0
           0           0           0           0
ONIOM Multiplicities                       I   N=          16
           1           0           0           0           0           0
           0           0           0           0           0           0
           0           0           0           0
Atom Layers                                I   N=           1
           1
Atom Modifiers                             I   N=           1
           0
Int Atom Modified Types                    I   N=           1
           0
Force Field                                I                0
Atom Modified Types                        C   N=           1

Link Atoms                                 I   N=           1
           0
Atom Modified MM Charges                   R   N=           1
  0.00000000E+00
Link Distances                             R   N=           4
  0.00000000E+00  0.00000000E+00  0.00000000E+00  0.00000000E+00
Cartesian Gradient                         R   N=           3
  0.00000000E+00  0.00000000E+00  0.00000000E+00
Nonadiabatic coupling                      R   N=           3
  0.00000000E+00  0.00000000E+00  0.00000000E+00
Dipole Moment                              R   N=           3
  0.00000000E+00  0.00000000E+00  0.00000000E+00
Quadrupole Moment                          R   N=           6
  0.00000000E+00  0.00000000E+00  0.00000000E+00  6.89686821E-21 -3.50274179E-23
  1.24267689E-21
QEq coupling tensors                       R   N=           6
  0.00000000E+00  0.00000000E+00  0.00000000E+00  0.00000000E+00  0.00000000E+00
  0.00000000E+00
ClPar MaxAn                                I              200
ClPar NIntPar                              I                4
ClPar NRealPar                             I               16
ClPar NBits                                I               30
ClPar LenBitVec                            I                1
ClPar Read BitMap                          I   N=         200
           0           0           0           0           0           0
           0           0           0           0           0           0
           0           0           0           0           0           0
           0           0           0           0           0           0
           0           0           0           0           0           0
           0           0           0           0           0           0
           0           0           0           0           0           0
           0           0           0           0           0           0
           0           0           0           0           0           0
           0           0           0           0           0           0
           0           0           0           0           0           0
           0           0           0           0           0           0
           0           0           0           0           0           0
           0           0           0           0           0           0
           0           0           0           0           0           0
           0           0           0           0           0           0
           0           0           0           0           0           0
           0           0           0           0           0           0
           0           0           0           0           0           0
           0           0           0           0           0           0
           0           0           0           0           0           0
           0           0           0           0           0           0
           0           0           0           0           0           0
           0           0           0           0           0           0
           0           0           0           0           0           0
           0           0           0           0           0           0
           0           0           0           0           0           0
           0           0           0           0           0           0
           0           0           0           0           0           0
           0           0           0           0           0           0
           0           0           0           0           0           0
           0           0           0           0           0           0
           0           0           0           0           0           0
           0           0
ClPar Default BitMap                       I   N=         200
        2016        2016        2016        2016        2016        2016
        2016        2016        2016        2016        2016        2016
        2016        2016        2016        2016        2016        2016
        2016        2016        2016        2016        2016        2016
        2016        2016        2016        2016        2016        2016
        2016        2016        2016        2016        2016        2016
        2016        2016        2016        2016        2016        2016
        2016        2016        2016        2016        2016        2016
        2016        2016        2016        2016        2016        2016
        2016        2016        2016        2016        2016        2016
        2016        2016        2016        2016        2016        2016
        2016        2016        2016        2016        2016        2016
        2016        2016        2016        2016        2016        2016
        2016        2016        2016        2016        2016        2016
        2016        2016         480         480         480         480
         480         480         480         480         480         480