 Entering Gaussian System, Link 0=g09
 Input=atom.in
 Output=atom.log
 Initial command:
 /apps/gent/CO7/haswell-ib/software/Gaussian/g09_D.01-intel-2015a-amd64-gpfs/g09/l1.exe "/kyukon/home/gent/430/vsc43080/benzene/atoms/001__h_002_q-01/mult01/Gau-11647.inp" -scrdir="/kyukon/home/gent/430/vsc43080/benzene/atoms/001__h_002_q-01/mult01/"
 Entering Link 1 = /apps/gent/CO7/haswell-ib/software/Gaussian/g09_D.01-intel-2015a-amd64-gpfs/g09/l1.exe.bin PID=     11648.

 Copyright (c) 1988,1990,1992,1993,1995,1998,2003,2009,2013,
            Gaussian, Inc.  All Rights Reserved.

 This is part of the Gaussian(R) 09 program.  It is based on
 the Gaussian(R) 03 system (copyright 2003, Gaussian, Inc.),
 the Gaussian(R) 98 system (copyright 1998, Gaussian, Inc.),
 the Gaussian(R) 94 system (copyright 1995, Gaussian, Inc.),
 the Gaussian 92(TM) system (copyright 1992, Gaussian, Inc.),
 the Gaussian 90(TM) system (copyright 1990, Gaussian, Inc.),
 the Gaussian 88(TM) system (copyright 1988, Gaussian, Inc.),
 the Gaussian 86(TM) system (copyright 1986, Carnegie Mellon
 University), and the Gaussian 82(TM) system (copyright 1983,
 Carnegie Mellon University). Gaussian is a federally registered
 trademark of Gaussian, Inc.

 This software contains proprietary and confidential information,
 including trade secrets, belonging to Gaussian, Inc.

 This software is provided under written license and may be
 used, copied, transmitted, or stored only in accord with that
 written license.

 The following legend is applicable only to US Government
 contracts under FAR:

                    RESTRICTED RIGHTS LEGEND

 Use, reproduction and disclosure by the US Government is
 subject to restrictions as set forth in subparagraphs (a)
 and (c) of the Commercial Computer Software - Restricted
 Rights clause in FAR 52.227-19.

 Gaussian, Inc.
 340 Quinnipiac St., Bldg. 40, Wallingford CT 06492


 ---------------------------------------------------------------
 Warning -- This program may not be used in any manner that
 competes with the business of Gaussian, Inc. or will provide
 assistance to any competitor of Gaussian, Inc.  The licensee
 of this program is prohibited from giving any competitor of
 Gaussian, Inc. access to this program.  By using this program,
 the user acknowledges that Gaussian, Inc. is engaged in the
 business of creating and licensing software in the field of
 computational chemistry and represents and warrants to the
 licensee that it is not a competitor of Gaussian, Inc. and that
 it will not use this program in any manner prohibited above.
 ---------------------------------------------------------------


 Cite this work as:
 Gaussian 09, Revision D.01,
 M. J. Frisch, G. W. Trucks, H. B. Schlegel, G. E. Scuseria,
 M. A. Robb, J. R. Cheeseman, G. Scalmani, V. Barone, B. Mennucci,
 G. A. Petersson, H. Nakatsuji, M. Caricato, X. Li, H. P. Hratchian,
 A. F. Izmaylov, J. Bloino, G. Zheng, J. L. Sonnenberg, M. Hada,
 M. Ehara, K. Toyota, R. Fukuda, J. Hasegawa, M. Ishida, T. Nakajima,
 Y. Honda, O. Kitao, H. Nakai, T. Vreven, J. A. Montgomery, Jr.,
 J. E. Peralta, F. Ogliaro, M. Bearpark, J. J. Heyd, E. Brothers,
 K. N. Kudin, V. N. Staroverov, T. Keith, R. Kobayashi, J. Normand,
 K. Raghavachari, A. Rendell, J. C. Burant, S. S. Iyengar, J. Tomasi,
 M. Cossi, N. Rega, J. M. Millam, M. Klene, J. E. Knox, J. B. Cross,
 V. Bakken, C. Adamo, J. Jaramillo, R. Gomperts, R. E. Stratmann,
 O. Yazyev, A. J. Austin, R. Cammi, C. Pomelli, J. W. Ochterski,
 R. L. Martin, K. Morokuma, V. G. Zakrzewski, G. A. Voth,
 P. Salvador, J. J. Dannenberg, S. Dapprich, A. D. Daniels,
 O. Farkas, J. B. Foresman, J. V. Ortiz, J. Cioslowski,
 and D. J. Fox, Gaussian, Inc., Wallingford CT, 2013.

 ******************************************
 Gaussian 09:  ES64L-G09RevD.01 24-Apr-2013
                30-Sep-2020
 ******************************************
 %chk=atom.chk
 %nproc=1
 Will use up to    1 processors via shared memory.
 %mem=1GB
 --------------------------
 #PBEPBE/6-31+g** scf=tight
 --------------------------
 1/38=1/1;
 2/12=2,17=6,18=5,40=1/2;
 3/5=1,6=6,7=111,11=2,16=1,25=1,30=1,74=1009/1,2,3;
 4//1;
 5/5=2,32=2,38=5/2;
 6/7=2,8=2,9=2,10=2,28=1/1;
 99/5=1,9=1/99;
 Leave Link    1 at Wed Sep 30 15:58:55 2020, MaxMem=   134217728 cpu:         0.0
 (Enter /apps/gent/CO7/haswell-ib/software/Gaussian/g09_D.01-intel-2015a-amd64-gpfs/g09/l101.exe.bin)
 -----
 fubar
 -----
 Symbolic Z-matrix:
 Charge = -1 Multiplicity = 1
 H                     0.        0.        0.

 NAtoms=      1 NQM=        1 NQMF=       0 NMMI=      0 NMMIF=      0
                NMic=       0 NMicF=      0.
                    Isotopes and Nuclear Properties:
 (Nuclear quadrupole moments (NQMom) in fm**2, nuclear magnetic moments (NMagM)
  in nuclear magnetons)

  Atom         1
 IAtWgt=           1
 AtmWgt=   1.0078250
 NucSpn=           1
 AtZEff=   0.0000000
 NQMom=    0.0000000
 NMagM=    2.7928460
 AtZNuc=   1.0000000
 Leave Link  101 at Wed Sep 30 15:58:55 2020, MaxMem=   134217728 cpu:         0.0
 (Enter /apps/gent/CO7/haswell-ib/software/Gaussian/g09_D.01-intel-2015a-amd64-gpfs/g09/l202.exe.bin)
                          Input orientation:
 ---------------------------------------------------------------------
 Center     Atomic      Atomic             Coordinates (Angstroms)
 Number     Number       Type             X           Y           Z
 ---------------------------------------------------------------------
      1          1           0        0.000000    0.000000    0.000000
 ---------------------------------------------------------------------
 Stoichiometry    H(1-)
 Framework group  OH[O(H)]
 Deg. of freedom     0
 Full point group                 OH      NOp  48
 Largest Abelian subgroup         D2H     NOp   8
 Largest concise Abelian subgroup C1      NOp   1
                         Standard orientation:
 ---------------------------------------------------------------------
 Center     Atomic      Atomic             Coordinates (Angstroms)
 Number     Number       Type             X           Y           Z
 ---------------------------------------------------------------------
      1          1           0        0.000000    0.000000    0.000000
 ---------------------------------------------------------------------
 Leave Link  202 at Wed Sep 30 15:58:55 2020, MaxMem=   134217728 cpu:         0.0
 (Enter /apps/gent/CO7/haswell-ib/software/Gaussian/g09_D.01-intel-2015a-amd64-gpfs/g09/l301.exe.bin)
 Standard basis: 6-31+G(d,p) (6D, 7F)
 Ernie: Thresh=  0.10000D-02 Tol=  0.10000D-05 Strict=F.
 There are     2 symmetry adapted cartesian basis functions of AG  symmetry.
 There are     0 symmetry adapted cartesian basis functions of B1G symmetry.
 There are     0 symmetry adapted cartesian basis functions of B2G symmetry.
 There are     0 symmetry adapted cartesian basis functions of B3G symmetry.
 There are     0 symmetry adapted cartesian basis functions of AU  symmetry.
 There are     1 symmetry adapted cartesian basis functions of B1U symmetry.
 There are     1 symmetry adapted cartesian basis functions of B2U symmetry.
 There are     1 symmetry adapted cartesian basis functions of B3U symmetry.
 There are     2 symmetry adapted basis functions of AG  symmetry.
 There are     0 symmetry adapted basis functions of B1G symmetry.
 There are     0 symmetry adapted basis functions of B2G symmetry.
 There are     0 symmetry adapted basis functions of B3G symmetry.
 There are     0 symmetry adapted basis functions of AU  symmetry.
 There are     1 symmetry adapted basis functions of B1U symmetry.
 There are     1 symmetry adapted basis functions of B2U symmetry.
 There are     1 symmetry adapted basis functions of B3U symmetry.
     5 basis functions,     7 primitive gaussians,     5 cartesian basis functions
     1 alpha electrons        1 beta electrons
       nuclear repulsion energy         0.0000000000 Hartrees.
 IExCor= 1009 DFT=T Ex=PBE Corr=PBE ExCW=0 ScaHFX=  0.000000
 ScaDFX=  1.000000  1.000000  1.000000  1.000000 ScalE2=  1.000000  1.000000
 IRadAn=      0 IRanWt=     -1 IRanGd=            0 ICorTp=0 IEmpDi=  4
 NAtoms=    1 NActive=    1 NUniq=    1 SFac= 1.00D+00 NAtFMM=   60 NAOKFM=F Big=F
 Integral buffers will be    131072 words long.
 Raffenetti 2 integral format.
 Two-electron integral symmetry is turned on.
 Leave Link  301 at Wed Sep 30 15:58:56 2020, MaxMem=   134217728 cpu:         0.0
 (Enter /apps/gent/CO7/haswell-ib/software/Gaussian/g09_D.01-intel-2015a-amd64-gpfs/g09/l302.exe.bin)
 NPDir=0 NMtPBC=     1 NCelOv=     1 NCel=       1 NClECP=     1 NCelD=      1
         NCelK=      1 NCelE2=     1 NClLst=     1 CellRange=     0.0.
 One-electron integrals computed using PRISM.
 NBasis=     5 RedAO= T EigKep=  9.66D-01  NBF=     2     0     0     0     0     1     1     1
 NBsUse=     5 1.00D-06 EigRej= -1.00D+00 NBFU=     2     0     0     0     0     1     1     1
 Precomputing XC quadrature grid using
 IXCGrd= 4 IRadAn=           0 IRanWt=          -1 IRanGd=           0 AccXCQ= 0.00D+00.
 Generated NRdTot=       0 NPtTot=           0 NUsed=           0 NTot=          32
 NSgBfM=     5     5     5     5     5 MxSgAt=     1 MxSgA2=     1.
 Leave Link  302 at Wed Sep 30 15:58:56 2020, MaxMem=   134217728 cpu:         0.0
 (Enter /apps/gent/CO7/haswell-ib/software/Gaussian/g09_D.01-intel-2015a-amd64-gpfs/g09/l303.exe.bin)
 DipDrv:  MaxL=1.
 Leave Link  303 at Wed Sep 30 15:58:56 2020, MaxMem=   134217728 cpu:         0.0
 (Enter /apps/gent/CO7/haswell-ib/software/Gaussian/g09_D.01-intel-2015a-amd64-gpfs/g09/l401.exe.bin)
 ExpMin= 1.61D-01 ExpMax= 1.87D+01 ExpMxC= 1.87D+01 IAcc=1 IRadAn=         1 AccDes= 0.00D+00
 Harris functional with IExCor= 1009 and IRadAn=       1 diagonalized for initial guess.
 HarFok:  IExCor= 1009 AccDes= 0.00D+00 IRadAn=         1 IDoV= 1 UseB2=F ITyADJ=14
 ICtDFT=  3500011 ScaDFX=  1.000000  1.000000  1.000000  1.000000
 FoFCou: FMM=F IPFlag=           0 FMFlag=      100000 FMFlg1=           0
         NFxFlg=           0 DoJE=T BraDBF=F KetDBF=T FulRan=T
         wScrn=  0.000000 ICntrl=     500 IOpCl=  0 I1Cent=   200000004 NGrid=           0
         NMat0=    1 NMatS0=      1 NMatT0=    0 NMatD0=    1 NMtDS0=    0 NMtDT0=    0
 Petite list used in FoFCou.
 Harris En=-0.675087975227198
 JPrj=0 DoOrth=F DoCkMO=F.
 Initial guess orbital symmetries:
       Occupied  (A1G)
       Virtual   (A1G) (T1U) (T1U) (T1U)
 The electronic state of the initial guess is 1-A1G.
 Leave Link  401 at Wed Sep 30 15:58:56 2020, MaxMem=   134217728 cpu:         0.0
 (Enter /apps/gent/CO7/haswell-ib/software/Gaussian/g09_D.01-intel-2015a-amd64-gpfs/g09/l502.exe.bin)
 Closed shell SCF:
 Using DIIS extrapolation, IDIIS=  1040.
 Integral symmetry usage will be decided dynamically.
 Keep J ints in memory in symmetry-blocked form, NReq=859773.
 IVT=       20304 IEndB=       20304 NGot=   134217728 MDV=   134196847
 LenX=   134196847 LenY=   134195965
 Requested convergence on RMS density matrix=1.00D-08 within 128 cycles.
 Requested convergence on MAX density matrix=1.00D-06.
 Requested convergence on             energy=1.00D-06.
 No special actions if energy rises.
 FoFCou: FMM=F IPFlag=           0 FMFlag=           0 FMFlg1=           0
         NFxFlg=           0 DoJE=F BraDBF=F KetDBF=F FulRan=T
         wScrn=  0.000000 ICntrl=     600 IOpCl=  0 I1Cent=           0 NGrid=           0
         NMat0=    1 NMatS0=     15 NMatT0=    0 NMatD0=    1 NMtDS0=    0 NMtDT0=    0
 Petite list used in FoFCou.
 Integral accuracy reduced to 1.0D-05 until final iterations.

 Cycle   1  Pass 0  IDiag  1:
 E=-0.414840949020772
 DIIS: error= 7.35D-02 at cycle   1 NSaved=   1.
 NSaved= 1 IEnMin= 1 EnMin=-0.414840949020772     IErMin= 1 ErrMin= 7.35D-02
 ErrMax= 7.35D-02  0.00D+00 EMaxC= 1.00D-01 BMatC= 2.16D-02 BMatP= 2.16D-02
 IDIUse=3 WtCom= 2.65D-01 WtEn= 7.35D-01
 Coeff-Com:  0.100D+01
 Coeff-En:   0.100D+01
 Coeff:      0.100D+01
 Gap=     0.942 Goal=   None    Shift=    0.000
 GapD=    0.942 DampG=2.000 DampE=0.500 DampFc=1.0000 IDamp=-1.
 RMSDP=6.30D-02 MaxDP=2.53D-01              OVMax= 0.00D+00

 Cycle   2  Pass 0  IDiag  1:
 E=-0.446102332519558     Delta-E=       -0.031261383499 Rises=F Damp=F
 DIIS: error= 2.05D-02 at cycle   2 NSaved=   2.
 NSaved= 2 IEnMin= 2 EnMin=-0.446102332519558     IErMin= 2 ErrMin= 2.05D-02
 ErrMax= 2.05D-02  0.00D+00 EMaxC= 1.00D-01 BMatC= 1.67D-03 BMatP= 2.16D-02
 IDIUse=3 WtCom= 7.95D-01 WtEn= 2.05D-01
 Coeff-Com:  0.218D+00 0.782D+00
 Coeff-En:   0.000D+00 0.100D+01
 Coeff:      0.173D+00 0.827D+00
 Gap=     0.962 Goal=   None    Shift=    0.000
 RMSDP=1.55D-02 MaxDP=6.07D-02 DE=-3.13D-02 OVMax= 0.00D+00

 Cycle   3  Pass 0  IDiag  1:
 E=-0.448919046021195     Delta-E=       -0.002816713502 Rises=F Damp=F
 DIIS: error= 5.12D-04 at cycle   3 NSaved=   3.
 NSaved= 3 IEnMin= 3 EnMin=-0.448919046021195     IErMin= 3 ErrMin= 5.12D-04
 ErrMax= 5.12D-04  0.00D+00 EMaxC= 1.00D-01 BMatC= 1.05D-06 BMatP= 1.67D-03
 IDIUse=3 WtCom= 9.95D-01 WtEn= 5.12D-03
 Large coefficients: NSaved=  3 BigCof=    0.00 CofMax=   10.00 Det= 3.20D-19
 Inversion failed.  Reducing to  2 matrices.
 Coeff-Com:  0.244D-01 0.976D+00
 Coeff-En:   0.000D+00 0.100D+01
 Coeff:      0.243D-01 0.976D+00
 Gap=     0.964 Goal=   None    Shift=    0.000
 RMSDP=3.71D-04 MaxDP=1.47D-03 DE=-2.82D-03 OVMax= 0.00D+00

 Cycle   4  Pass 0  IDiag  1:
 E=-0.448920773461399     Delta-E=       -0.000001727440 Rises=F Damp=F
 DIIS: error= 6.10D-06 at cycle   4 NSaved=   3.
 NSaved= 3 IEnMin= 3 EnMin=-0.448920773461399     IErMin= 3 ErrMin= 6.10D-06
 ErrMax= 6.10D-06  0.00D+00 EMaxC= 1.00D-01 BMatC= 1.49D-10 BMatP= 1.05D-06
 IDIUse=1 WtCom= 1.00D+00 WtEn= 0.00D+00
 Large coefficients: NSaved=  3 BigCof=    0.00 CofMax=   10.00 Det=-1.30D-22
 Inversion failed.  Reducing to  2 matrices.
 Coeff-Com:  0.118D-01 0.988D+00
 Coeff:      0.118D-01 0.988D+00
 Gap=     0.964 Goal=   None    Shift=    0.000
 RMSDP=4.36D-06 MaxDP=1.73D-05 DE=-1.73D-06 OVMax= 0.00D+00

 Initial convergence to 1.0D-05 achieved.  Increase integral accuracy.
 Cycle   5  Pass 1  IDiag  1:
 E=-0.448920769683506     Delta-E=        0.000000003778 Rises=F Damp=F
 DIIS: error= 7.48D-09 at cycle   1 NSaved=   1.
 NSaved= 1 IEnMin= 1 EnMin=-0.448920769683506     IErMin= 1 ErrMin= 7.48D-09
 ErrMax= 7.48D-09  0.00D+00 EMaxC= 1.00D-01 BMatC= 2.24D-16 BMatP= 2.24D-16
 IDIUse=1 WtCom= 1.00D+00 WtEn= 0.00D+00
 Coeff-Com:  0.100D+01
 Coeff:      0.100D+01
 Gap=     0.964 Goal=   None    Shift=    0.000
 RMSDP=4.36D-06 MaxDP=1.73D-05 DE= 3.78D-09 OVMax= 0.00D+00

 Cycle   6  Pass 1  IDiag  1:
 E=-0.448920769683506     Delta-E=       -0.000000000000 Rises=F Damp=F
 DIIS: error= 1.93D-09 at cycle   2 NSaved=   2.
 NSaved= 2 IEnMin= 2 EnMin=-0.448920769683506     IErMin= 2 ErrMin= 1.93D-09
 ErrMax= 1.93D-09  0.00D+00 EMaxC= 1.00D-01 BMatC= 1.50D-17 BMatP= 2.24D-16
 IDIUse=1 WtCom= 1.00D+00 WtEn= 0.00D+00
 Coeff-Com:  0.205D+00 0.795D+00
 Coeff:      0.205D+00 0.795D+00
 Gap=     0.964 Goal=   None    Shift=    0.000
 RMSDP=1.38D-09 MaxDP=5.48D-09 DE=-4.44D-16 OVMax= 0.00D+00

 SCF Done:  E(RPBE-PBE) = -0.448920769684     A.U. after    6 cycles
            NFock=  6  Conv=0.14D-08     -V/T= 1.6442
 KE= 6.968724230291D-01 PE=-1.652932190780D+00 EE= 5.071389980670D-01
 Leave Link  502 at Wed Sep 30 15:58:57 2020, MaxMem=   134217728 cpu:         0.0
 (Enter /apps/gent/CO7/haswell-ib/software/Gaussian/g09_D.01-intel-2015a-amd64-gpfs/g09/l601.exe.bin)
 Copying SCF densities to generalized density rwf, IOpCl= 0 IROHF=0.

 **********************************************************************

            Population analysis using the SCF density.

 **********************************************************************

 Orbital symmetries:
       Occupied  (A1G)
       Virtual   (A1G) (T1U) (T1U) (T1U)
 The electronic state is 1-A1G.
 Alpha  occ. eigenvalues --    0.22853
 Alpha virt. eigenvalues --    1.19253   2.47248   2.47248   2.47248
          Condensed to atoms (all electrons):
               1
     1  H    2.000000
 Mulliken charges:
               1
     1  H   -1.000000
 Sum of Mulliken charges =  -1.00000
 Mulliken charges with hydrogens summed into heavy atoms:
               1
 Electronic spatial extent (au):  <R**2>=              7.3354
 Charge=             -1.0000 electrons
 Dipole moment (field-independent basis, Debye):
    X=              0.0000    Y=              0.0000    Z=              0.0000  Tot=              0.0000
 Quadrupole moment (field-independent basis, Debye-Ang):
   XX=             -3.2888   YY=             -3.2888   ZZ=             -3.2888
   XY=              0.0000   XZ=              0.0000   YZ=              0.0000
 Traceless Quadrupole moment (field-independent basis, Debye-Ang):
   XX=              0.0000   YY=              0.0000   ZZ=              0.0000
   XY=              0.0000   XZ=              0.0000   YZ=              0.0000
 Octapole moment (field-independent basis, Debye-Ang**2):
  XXX=              0.0000  YYY=              0.0000  ZZZ=              0.0000  XYY=              0.0000
  XXY=              0.0000  XXZ=              0.0000  XZZ=              0.0000  YZZ=              0.0000
  YYZ=              0.0000  XYZ=              0.0000
 Hexadecapole moment (field-independent basis, Debye-Ang**3):
 XXXX=             -3.9180 YYYY=             -3.9180 ZZZZ=             -3.9180 XXXY=              0.0000
 XXXZ=              0.0000 YYYX=              0.0000 YYYZ=              0.0000 ZZZX=              0.0000
 ZZZY=              0.0000 XXYY=             -1.3060 XXZZ=             -1.3060 YYZZ=             -1.3060
 XXYZ=              0.0000 YYXZ=              0.0000 ZZXY=              0.0000
 N-N= 0.000000000000D+00 E-N=-1.652932189024D+00  KE= 6.968724230291D-01
 Symmetry AG   KE= 6.968724230290D-01
 Symmetry B1G  KE= 0.000000000000D+00
 Symmetry B2G  KE= 0.000000000000D+00
 Symmetry B3G  KE= 0.000000000000D+00
 Symmetry AU   KE= 0.000000000000D+00
 Symmetry B1U  KE= 0.000000000000D+00
 Symmetry B2U  KE= 0.000000000000D+00
 Symmetry B3U  KE= 0.000000000000D+00
 No NMR shielding tensors so no spin-rotation constants.
 Leave Link  601 at Wed Sep 30 15:58:57 2020, MaxMem=   134217728 cpu:         0.0
 (Enter /apps/gent/CO7/haswell-ib/software/Gaussian/g09_D.01-intel-2015a-amd64-gpfs/g09/l9999.exe.bin)
 1\1\GINC-GLIGAR05\SP\RPBEPBE\6-31+G(d,p)\H1(1-)\VSC43080\30-Sep-2020\0
 \\#PBEPBE/6-31+g** scf=tight\\fubar\\-1,1\H,0,0.,0.,0.\\Version=ES64L-
 G09RevD.01\State=1-A1G\HF=-0.4489208\RMSD=1.385e-09\Dipole=0.,0.,0.\Qu
 adrupole=0.,0.,0.,0.,0.,0.\PG=OH [O(H1)]\\@


 FROM WHENCE IT HAPPENS, THAT THEY WHICH TRUST TO BOOKS, DO AS THEY THAT CAST UP MANY LITTLE SUMMS INTO GREATER,
 WITHOUT CONSIDERING WETHER THOSE LITTLE SUMMES WERE RIGHTLY CAST UP OR NOT...
 AND AT LAST FINDING THE ERROUR VISIBLE, AND NOT MISTRUSTING THEIR FIRST GROUNDS,
 KNOW NOT WHICH WAY TO CLEERE THEMSELVES...
 BUT SPEND TIME IN FLUTTERING OVER THEIR BOOKES....
 AS BIRDS THAT ENTERING BY THE CHIMNEY, AND FINDING THEMSELVES INCLOSED IN A CHAMBER,
 FLUTTER AT THE FALSE LIGHT OF A GLASSE WINDOW,
 FOR WANT OF WIT TO CONSIDER WHICH WAY THEY CAME IN....
           LEVIATHAN
 Job cpu time:       0 days  0 hours  0 minutes  0.3 seconds.
 File lengths (MBytes):  RWF=    130 Int=      0 D2E=      0 Chk=      4 Scr=      4
 Normal termination of Gaussian 09 at Wed Sep 30 15:58:57 2020.
