fubar
Freq      RPBEPBE                                                     6-31+G(d,p)
Number of atoms                            I               12
Info1-9                                    I   N=           9
          21          21        1002           0           0         100
           6          18         902
Charge                                     I                0
Multiplicity                               I                1
Number of electrons                        I               42
Number of alpha electrons                  I               21
Number of beta electrons                   I               21
Number of basis functions                  I              144
Number of independent functions            I              144
Number of point charges in /Mol/           I                0
Number of translation vectors              I                0
Atomic numbers                             I   N=          12
           6           6           6           6           6           6
           1           1           1           1           1           1
Nuclear charges                            R   N=          12
  6.00000000E+00  6.00000000E+00  6.00000000E+00  6.00000000E+00  6.00000000E+00
  6.00000000E+00  1.00000000E+00  1.00000000E+00  1.00000000E+00  1.00000000E+00
  1.00000000E+00  1.00000000E+00
Current cartesian coordinates              R   N=          36
  2.60211552E+00 -5.22679643E-01 -3.43926943E-06  8.48351846E-01 -2.51449567E+00
  6.08326829E-05  1.75369534E+00  1.99195864E+00 -1.85366995E-05 -1.75370127E+00
 -1.99195181E+00 -2.96820454E-05 -8.48351218E-01  2.51449309E+00 -1.66869407E-05
 -2.60211474E+00  5.22681213E-01  1.86778982E-06  4.62993641E+00 -9.30196414E-01
 -1.89035373E-06  1.50937537E+00 -4.47442845E+00  7.69924504E-05  3.12027942E+00
  3.54458455E+00 -6.78602156E-05 -3.12025007E+00 -3.54460688E+00  1.79267788E-05
 -1.50937362E+00  4.47442973E+00  9.75194764E-06 -4.62994034E+00  9.30182573E-01
 -1.05371379E-06
Force Field                                I                0
Int Atom Types                             I   N=          12
           0           0           0           0           0           0
           0           0           0           0           0           0
MM charges                                 R   N=          12
  0.00000000E+00  0.00000000E+00  0.00000000E+00  0.00000000E+00  0.00000000E+00
  0.00000000E+00  0.00000000E+00  0.00000000E+00  0.00000000E+00  0.00000000E+00
  0.00000000E+00  0.00000000E+00
Integer atomic weights                     I   N=          12
          12          12          12          12          12          12
           1           1           1           1           1           1
Real atomic weights                        R   N=          12
  1.20000000E+01  1.20000000E+01  1.20000000E+01  1.20000000E+01  1.20000000E+01
  1.20000000E+01  1.00782504E+00  1.00782504E+00  1.00782504E+00  1.00782504E+00
  1.00782504E+00  1.00782504E+00
Atom fragment info                         I   N=          12
           0           0           0           0           0           0
           0           0           0           0           0           0
Atom residue num                           I   N=          12
           0           0           0           0           0           0
           0           0           0           0           0           0
Nuclear spins                              I   N=          12
           0           0           0           0           0           0
           1           1           1           1           1           1
Nuclear ZEff                               R   N=          12
 -3.60000000E+00 -3.60000000E+00 -3.60000000E+00 -3.60000000E+00 -3.60000000E+00
 -3.60000000E+00 -1.00000000E+00 -1.00000000E+00 -1.00000000E+00 -1.00000000E+00
 -1.00000000E+00 -1.00000000E+00
Nuclear ZNuc                               R   N=          12
  6.00000000E+00  6.00000000E+00  6.00000000E+00  6.00000000E+00  6.00000000E+00
  6.00000000E+00  1.00000000E+00  1.00000000E+00  1.00000000E+00  1.00000000E+00
  1.00000000E+00  1.00000000E+00
Nuclear QMom                               R   N=          12
  0.00000000E+00  0.00000000E+00  0.00000000E+00  0.00000000E+00  0.00000000E+00
  0.00000000E+00  0.00000000E+00  0.00000000E+00  0.00000000E+00  0.00000000E+00
  0.00000000E+00  0.00000000E+00
Nuclear GFac                               R   N=          12
  0.00000000E+00  0.00000000E+00  0.00000000E+00  0.00000000E+00  0.00000000E+00
  0.00000000E+00  2.79284600E+00  2.79284600E+00  2.79284600E+00  2.79284600E+00
  2.79284600E+00  2.79284600E+00
MicOpt                                     I   N=          12
          -1          -1          -1          -1          -1          -1
          -1          -1          -1          -1          -1          -1
Number of contracted shells                I               48
Number of primitive shells                 I              102
Pure/Cartesian d shells                    I                1
Pure/Cartesian f shells                    I                0
Highest angular momentum                   I                2
Largest degree of contraction              I                6
Shell types                                I   N=          48
           0          -1          -1          -1           2           0
          -1          -1          -1           2           0          -1
          -1          -1           2           0          -1          -1
          -1           2           0          -1          -1          -1
           2           0          -1          -1          -1           2
           0           0           1           0           0           1
           0           0           1           0           0           1
           0           0           1           0           0           1
Number of primitives per shell             I   N=          48
           6           3           1           1           1           6
           3           1           1           1           6           3
           1           1           1           6           3           1
           1           1           6           3           1           1
           1           6           3           1           1           1
           3           1           1           3           1           1
           3           1           1           3           1           1
           3           1           1           3           1           1
Shell to atom map                          I   N=          48
           1           1           1           1           1           2
           2           2           2           2           3           3
           3           3           3           4           4           4
           4           4           5           5           5           5
           5           6           6           6           6           6
           7           7           7           8           8           8
           9           9           9          10          10          10
          11          11          11          12          12          12
Primitive exponents                        R   N=         102
  3.04752488E+03  4.57369518E+02  1.03948685E+02  2.92101553E+01  9.28666296E+00
  3.16392696E+00  7.86827235E+00  1.88128854E+00  5.44249258E-01  1.68714478E-01
  4.38000000E-02  8.00000000E-01  3.04752488E+03  4.57369518E+02  1.03948685E+02
  2.92101553E+01  9.28666296E+00  3.16392696E+00  7.86827235E+00  1.88128854E+00
  5.44249258E-01  1.68714478E-01  4.38000000E-02  8.00000000E-01  3.04752488E+03
  4.57369518E+02  1.03948685E+02  2.92101553E+01  9.28666296E+00  3.16392696E+00
  7.86827235E+00  1.88128854E+00  5.44249258E-01  1.68714478E-01  4.38000000E-02
  8.00000000E-01  3.04752488E+03  4.57369518E+02  1.03948685E+02  2.92101553E+01
  9.28666296E+00  3.16392696E+00  7.86827235E+00  1.88128854E+00  5.44249258E-01
  1.68714478E-01  4.38000000E-02  8.00000000E-01  3.04752488E+03  4.57369518E+02
  1.03948685E+02  2.92101553E+01  9.28666296E+00  3.16392696E+00  7.86827235E+00
  1.88128854E+00  5.44249258E-01  1.68714478E-01  4.38000000E-02  8.00000000E-01
  3.04752488E+03  4.57369518E+02  1.03948685E+02  2.92101553E+01  9.28666296E+00
  3.16392696E+00  7.86827235E+00  1.88128854E+00  5.44249258E-01  1.68714478E-01
  4.38000000E-02  8.00000000E-01  1.87311370E+01  2.82539436E+00  6.40121692E-01
  1.61277759E-01  1.10000000E+00  1.87311370E+01  2.82539436E+00  6.40121692E-01
  1.61277759E-01  1.10000000E+00  1.87311370E+01  2.82539436E+00  6.40121692E-01
  1.61277759E-01  1.10000000E+00  1.87311370E+01  2.82539436E+00  6.40121692E-01
  1.61277759E-01  1.10000000E+00  1.87311370E+01  2.82539436E+00  6.40121692E-01
  1.61277759E-01  1.10000000E+00  1.87311370E+01  2.82539436E+00  6.40121692E-01
  1.61277759E-01  1.10000000E+00
Contraction coefficients                   R   N=         102
  1.83473713E-03  1.40373228E-02  6.88426223E-02  2.32184443E-01  4.67941348E-01
  3.62311985E-01 -1.19332420E-01 -1.60854152E-01  1.14345644E+00  1.00000000E+00
  1.00000000E+00  1.00000000E+00  1.83473713E-03  1.40373228E-02  6.88426223E-02
  2.32184443E-01  4.67941348E-01  3.62311985E-01 -1.19332420E-01 -1.60854152E-01
  1.14345644E+00  1.00000000E+00  1.00000000E+00  1.00000000E+00  1.83473713E-03
  1.40373228E-02  6.88426223E-02  2.32184443E-01  4.67941348E-01  3.62311985E-01
 -1.19332420E-01 -1.60854152E-01  1.14345644E+00  1.00000000E+00  1.00000000E+00
  1.00000000E+00  1.83473713E-03  1.40373228E-02  6.88426223E-02  2.32184443E-01
  4.67941348E-01  3.62311985E-01 -1.19332420E-01 -1.60854152E-01  1.14345644E+00
  1.00000000E+00  1.00000000E+00  1.00000000E+00  1.83473713E-03  1.40373228E-02
  6.88426223E-02  2.32184443E-01  4.67941348E-01  3.62311985E-01 -1.19332420E-01
 -1.60854152E-01  1.14345644E+00  1.00000000E+00  1.00000000E+00  1.00000000E+00
  1.83473713E-03  1.40373228E-02  6.88426223E-02  2.32184443E-01  4.67941348E-01
  3.62311985E-01 -1.19332420E-01 -1.60854152E-01  1.14345644E+00  1.00000000E+00
  1.00000000E+00  1.00000000E+00  3.34946043E-02  2.34726953E-01  8.13757326E-01
  1.00000000E+00  1.00000000E+00  3.34946043E-02  2.34726953E-01  8.13757326E-01
  1.00000000E+00  1.00000000E+00  3.34946043E-02  2.34726953E-01  8.13757326E-01
  1.00000000E+00  1.00000000E+00  3.34946043E-02  2.34726953E-01  8.13757326E-01
  1.00000000E+00  1.00000000E+00  3.34946043E-02  2.34726953E-01  8.13757326E-01
  1.00000000E+00  1.00000000E+00  3.34946043E-02  2.34726953E-01  8.13757326E-01
  1.00000000E+00  1.00000000E+00
P(S=P) Contraction coefficients            R   N=         102
  0.00000000E+00  0.00000000E+00  0.00000000E+00  0.00000000E+00  0.00000000E+00
  0.00000000E+00  6.89990666E-02  3.16423961E-01  7.44308291E-01  1.00000000E+00
  1.00000000E+00  0.00000000E+00  0.00000000E+00  0.00000000E+00  0.00000000E+00
  0.00000000E+00  0.00000000E+00  0.00000000E+00  6.89990666E-02  3.16423961E-01
  7.44308291E-01  1.00000000E+00  1.00000000E+00  0.00000000E+00  0.00000000E+00
  0.00000000E+00  0.00000000E+00  0.00000000E+00  0.00000000E+00  0.00000000E+00
  6.89990666E-02  3.16423961E-01  7.44308291E-01  1.00000000E+00  1.00000000E+00
  0.00000000E+00  0.00000000E+00  0.00000000E+00  0.00000000E+00  0.00000000E+00
  0.00000000E+00  0.00000000E+00  6.89990666E-02  3.16423961E-01  7.44308291E-01
  1.00000000E+00  1.00000000E+00  0.00000000E+00  0.00000000E+00  0.00000000E+00
  0.00000000E+00  0.00000000E+00  0.00000000E+00  0.00000000E+00  6.89990666E-02
  3.16423961E-01  7.44308291E-01  1.00000000E+00  1.00000000E+00  0.00000000E+00
  0.00000000E+00  0.00000000E+00  0.00000000E+00  0.00000000E+00  0.00000000E+00
  0.00000000E+00  6.89990666E-02  3.16423961E-01  7.44308291E-01  1.00000000E+00
  1.00000000E+00  0.00000000E+00  0.00000000E+00  0.00000000E+00  0.00000000E+00
  0.00000000E+00  0.00000000E+00  0.00000000E+00  0.00000000E+00  0.00000000E+00
  0.00000000E+00  0.00000000E+00  0.00000000E+00  0.00000000E+00  0.00000000E+00
  0.00000000E+00  0.00000000E+00  0.00000000E+00  0.00000000E+00  0.00000000E+00
  0.00000000E+00  0.00000000E+00  0.00000000E+00  0.00000000E+00  0.00000000E+00
  0.00000000E+00  0.00000000E+00  0.00000000E+00  0.00000000E+00  0.00000000E+00
  0.00000000E+00  0.00000000E+00
Coordinates of each shell                  R   N=         144
  2.60211552E+00 -5.22679643E-01 -3.43926943E-06  2.60211552E+00 -5.22679643E-01
 -3.43926943E-06  2.60211552E+00 -5.22679643E-01 -3.43926943E-06  2.60211552E+00
 -5.22679643E-01 -3.43926943E-06  2.60211552E+00 -5.22679643E-01 -3.43926943E-06
  8.48351846E-01 -2.51449567E+00  6.08326829E-05  8.48351846E-01 -2.51449567E+00
  6.08326829E-05  8.48351846E-01 -2.51449567E+00  6.08326829E-05  8.48351846E-01
 -2.51449567E+00  6.08326829E-05  8.48351846E-01 -2.51449567E+00  6.08326829E-05
  1.75369534E+00  1.99195864E+00 -1.85366995E-05  1.75369534E+00  1.99195864E+00
 -1.85366995E-05  1.75369534E+00  1.99195864E+00 -1.85366995E-05  1.75369534E+00
  1.99195864E+00 -1.85366995E-05  1.75369534E+00  1.99195864E+00 -1.85366995E-05
 -1.75370127E+00 -1.99195181E+00 -2.96820454E-05 -1.75370127E+00 -1.99195181E+00
 -2.96820454E-05 -1.75370127E+00 -1.99195181E+00 -2.96820454E-05 -1.75370127E+00
 -1.99195181E+00 -2.96820454E-05 -1.75370127E+00 -1.99195181E+00 -2.96820454E-05
 -8.48351218E-01  2.51449309E+00 -1.66869407E-05 -8.48351218E-01  2.51449309E+00
 -1.66869407E-05 -8.48351218E-01  2.51449309E+00 -1.66869407E-05 -8.48351218E-01
  2.51449309E+00 -1.66869407E-05 -8.48351218E-01  2.51449309E+00 -1.66869407E-05
 -2.60211474E+00  5.22681213E-01  1.86778982E-06 -2.60211474E+00  5.22681213E-01
  1.86778982E-06 -2.60211474E+00  5.22681213E-01  1.86778982E-06 -2.60211474E+00
  5.22681213E-01  1.86778982E-06 -2.60211474E+00  5.22681213E-01  1.86778982E-06
  4.62993641E+00 -9.30196414E-01 -1.89035373E-06  4.62993641E+00 -9.30196414E-01
 -1.89035373E-06  4.62993641E+00 -9.30196414E-01 -1.89035373E-06  1.50937537E+00
 -4.47442845E+00  7.69924504E-05  1.50937537E+00 -4.47442845E+00  7.69924504E-05
  1.50937537E+00 -4.47442845E+00  7.69924504E-05  3.12027942E+00  3.54458455E+00
 -6.78602156E-05  3.12027942E+00  3.54458455E+00 -6.78602156E-05  3.12027942E+00
  3.54458455E+00 -6.78602156E-05 -3.12025007E+00 -3.54460688E+00  1.79267788E-05
 -3.12025007E+00 -3.54460688E+00  1.79267788E-05 -3.12025007E+00 -3.54460688E+00
  1.79267788E-05 -1.50937362E+00  4.47442973E+00  9.75194764E-06 -1.50937362E+00
  4.47442973E+00  9.75194764E-06 -1.50937362E+00  4.47442973E+00  9.75194764E-06
 -4.62994034E+00  9.30182573E-01 -1.05371379E-06 -4.62994034E+00  9.30182573E-01
 -1.05371379E-06 -4.62994034E+00  9.30182573E-01 -1.05371379E-06
Constraint Structure                       R   N=          36
  2.60211552E+00 -5.22679643E-01 -3.43926943E-06  8.48351846E-01 -2.51449567E+00
  6.08326829E-05  1.75369534E+00  1.99195864E+00 -1.85366995E-05 -1.75370127E+00
 -1.99195181E+00 -2.96820454E-05 -8.48351218E-01  2.51449309E+00 -1.66869407E-05
 -2.60211474E+00  5.22681213E-01  1.86778982E-06  4.62993641E+00 -9.30196414E-01
 -1.89035373E-06  1.50937537E+00 -4.47442845E+00  7.69924504E-05  3.12027942E+00
  3.54458455E+00 -6.78602156E-05 -3.12025007E+00 -3.54460688E+00  1.79267788E-05
 -1.50937362E+00  4.47442973E+00  9.75194764E-06 -4.62994034E+00  9.30182573E-01
 -1.05371379E-06
Num ILSW                                   I              100
ILSW                                       I   N=         100
           0           1           0           0           2           0
           0           0           0           0        1009  9395240960
           0           0           0           0           2           0
           0           0           0           0           1           0
           1           0           0           0           0           0
           0           0      100000           0          -1           0
           0           0           0           0           0           0
           0           0           0           1           0           0
           0           0           1           0           0           0
           0           0           4          41           0           0
           0           0           0           0           0           0
           0           0           0          12           0           0
           0           0           0           0           0           0
           0           0           0           0           0           0
           0           0           0           0           0           0
           0           0           0           0           0           0
           0           0           0           0
Num RLSW                                   I               41
RLSW                                       R   N=          41
  1.00000000E+00  1.00000000E+00  1.00000000E+00  1.00000000E+00  0.00000000E+00
  0.00000000E+00  0.00000000E+00  1.00000000E+00  0.00000000E+00  0.00000000E+00
  0.00000000E+00  0.00000000E+00  1.00000000E+00  0.00000000E+00  0.00000000E+00
  0.00000000E+00  0.00000000E+00  1.00000000E+00  0.00000000E+00  0.00000000E+00
  0.00000000E+00  0.00000000E+00  1.00000000E+00  0.00000000E+00  0.00000000E+00
  0.00000000E+00  0.00000000E+00  1.00000000E+00  0.00000000E+00  0.00000000E+00
  0.00000000E+00  0.00000000E+00  1.00000000E+00  0.00000000E+00  0.00000000E+00
  0.00000000E+00  0.00000000E+00  0.00000000E+00  1.00000000E+00  1.00000000E+00
  0.00000000E+00
MxBond                                     I                3
NBond                                      I   N=          12
           3           3           3           3           3           3
           1           1           1           1           1           1
IBond                                      I   N=          36
           2           3           7           1           4           8
           1           5           9           2           6          10
           3           6          11           4           5          12
           1           0           0           2           0           0
           3           0           0           4           0           0
           5           0           0           6           0           0
RBond                                      R   N=          36
  1.50000000E+00  1.50000000E+00  1.00000000E+00  1.50000000E+00  1.50000000E+00
  1.00000000E+00  1.50000000E+00  1.50000000E+00  1.00000000E+00  1.50000000E+00
  1.50000000E+00  1.00000000E+00  1.50000000E+00  1.50000000E+00  1.00000000E+00
  1.50000000E+00  1.50000000E+00  1.00000000E+00  1.00000000E+00  0.00000000E+00
  0.00000000E+00  1.00000000E+00  0.00000000E+00  0.00000000E+00  1.00000000E+00
  0.00000000E+00  0.00000000E+00  1.00000000E+00  0.00000000E+00  0.00000000E+00
  1.00000000E+00  0.00000000E+00  0.00000000E+00  1.00000000E+00  0.00000000E+00
  0.00000000E+00
Virial Ratio                               R      2.010584737597393E+00
SCF Energy                                 R     -2.319539241447482E+02
Total Energy                               R     -2.319539241447482E+02
RMS Force                                  R      3.742226314323800E-05
RMS Density                                R      3.569817346607678E-10
External E-field                           R   N=          35
  0.00000000E+00  0.00000000E+00  0.00000000E+00  0.00000000E+00  0.00000000E+00
  0.00000000E+00  0.00000000E+00  0.00000000E+00  0.00000000E+00  0.00000000E+00
  0.00000000E+00  0.00000000E+00  0.00000000E+00  0.00000000E+00  0.00000000E+00
  0.00000000E+00  0.00000000E+00  0.00000000E+00  0.00000000E+00  0.00000000E+00
  0.00000000E+00  0.00000000E+00  0.00000000E+00  0.00000000E+00  0.00000000E+00
  0.00000000E+00  0.00000000E+00  0.00000000E+00  0.00000000E+00  0.00000000E+00
  0.00000000E+00  0.00000000E+00  0.00000000E+00  0.00000000E+00  0.00000000E+00
IOpCl                                      I                0
IROHF                                      I                0
Alpha Orbital Energies                     R   N=         144
 -9.91203720E+00 -9.91186013E+00 -9.91185703E+00 -9.91149873E+00 -9.91149548E+00
 -9.91132836E+00 -7.76068618E-01 -6.75617811E-01 -6.75591038E-01 -5.43114988E-01
 -5.43101303E-01 -4.70049633E-01 -4.11694481E-01 -3.96232199E-01 -3.74103385E-01
 -3.74058444E-01 -3.28356467E-01 -3.01547514E-01 -3.01525770E-01 -2.29727860E-01
 -2.29707947E-01 -4.32026196E-02 -4.31977350E-02 -5.00117888E-03  1.49182208E-02
  1.49305150E-02  3.54984834E-02  3.55044283E-02  5.48611880E-02  6.42915784E-02
  6.93773817E-02  8.17479048E-02  8.18262072E-02  8.83532474E-02  9.20163051E-02
  1.30342388E-01  1.30423729E-01  1.34117271E-01  1.34143358E-01  1.41949875E-01
  1.42150527E-01  1.71085713E-01  1.80211823E-01  1.80235138E-01  1.83523455E-01
  1.99171145E-01  1.99316220E-01  2.17327881E-01  2.23182003E-01  2.23193476E-01
  2.46459158E-01  2.46540568E-01  2.62029902E-01  3.02163365E-01  3.09388400E-01
  3.09414639E-01  3.12274065E-01  3.12298118E-01  5.08559141E-01  5.34894522E-01
  5.47241337E-01  5.81603813E-01  6.18593789E-01  6.73503935E-01  6.73519506E-01
  6.77309064E-01  6.77331681E-01  7.03707511E-01  7.03724886E-01  7.20365595E-01
  7.20373030E-01  7.57343956E-01  7.85547711E-01  8.32287377E-01  8.66684120E-01
  8.66688469E-01  9.05874330E-01  9.05918868E-01  9.23768720E-01  9.76716531E-01
  1.02545077E+00  1.02549450E+00  1.07108843E+00  1.07110352E+00  1.12305497E+00
  1.12306568E+00  1.18625252E+00  1.23206586E+00  1.25943752E+00  1.32934364E+00
  1.32939890E+00  1.34887999E+00  1.34891233E+00  1.37484271E+00  1.37492211E+00
  1.66829158E+00  1.71153980E+00  1.76380403E+00  1.82281288E+00  1.85610244E+00
  1.85615865E+00  1.90486587E+00  1.90492529E+00  1.92366711E+00  1.92370188E+00
  1.95335773E+00  1.99222234E+00  1.99228768E+00  2.20120616E+00  2.20126639E+00
  2.28303497E+00  2.28719310E+00  2.28721181E+00  2.32042897E+00  2.32508768E+00
  2.32510448E+00  2.39946297E+00  2.39951201E+00  2.42875710E+00  2.42878134E+00
  2.50123163E+00  2.50130286E+00  2.52044736E+00  2.54599626E+00  2.55315534E+00
  2.66451230E+00  2.71704099E+00  2.71705283E+00  2.94691184E+00  2.94694373E+00
  3.08863406E+00  3.16064261E+00  3.18158960E+00  3.18159866E+00  3.27364503E+00
  3.41980573E+00  3.41991062E+00  3.83123016E+00  4.18051534E+00  4.20394809E+00
  4.20401977E+00  4.39705202E+00  4.39708113E+00  4.74739717E+00
Alpha MO coefficients                      R   N=       20736
  4.04095405E-01  2.13348499E-02  1.46565631E-04 -3.05109979E-05  9.79777816E-09
 -4.11842183E-03 -3.63342094E-04  7.95627835E-05 -6.37677126E-08  2.83089012E-04
 -5.37268122E-04  9.37340779E-05  4.29387116E-07 -4.07695761E-03 -4.28336884E-03
 -4.24261081E-03 -4.89861437E-05  6.34141857E-09  1.85509895E-09  4.03383979E-01
  2.12960777E-02  4.86387308E-05 -1.41773445E-04 -1.22332603E-08 -4.10192668E-03
 -1.24252109E-04  3.55169927E-04  7.80103365E-08  2.43281382E-04 -1.60547470E-04
  5.13133464E-04 -5.05216535E-07 -4.26241829E-03 -4.08397307E-03 -4.23542025E-03
 -7.74860550E-05 -3.85336313E-09  4.69092754E-09  4.07583515E-01  2.15234927E-02
  9.80600507E-05  1.11365579E-04 -1.05512435E-08 -4.19713707E-03 -2.34994355E-04
 -2.67482286E-04  5.99309272E-08  5.08945550E-04 -3.91161560E-04 -4.41235137E-04
 -3.38686284E-07 -4.22754999E-03 -4.19929594E-03 -4.27788854E-03  1.27494895E-04
 -4.62972257E-09 -6.06495977E-09  4.07211386E-01  2.15034831E-02 -9.78928138E-05
 -1.11514441E-04  1.65499198E-08 -4.19108277E-03  2.34407694E-04  2.68672432E-04
 -9.20029429E-08  5.01133310E-04  3.90816470E-04  4.38771265E-04  4.90600585E-07
 -4.22370874E-03 -4.19562165E-03 -4.27412451E-03  1.27446184E-04 -8.26360807E-09
 -6.49482647E-09  4.03864295E-01  2.13218533E-02 -4.87238734E-05  1.41755056E-04
  8.68720615E-09 -4.10868044E-03  1.24672226E-04 -3.55025262E-04 -5.67753935E-08
  2.49696900E-04  1.60617613E-04 -5.15302995E-04  3.45162945E-07 -4.26737020E-03
 -4.08877087E-03 -4.24029601E-03 -7.75041593E-05 -5.68924662E-10  5.26064628E-09
  4.04231954E-01  2.13422150E-02 -1.46618394E-04  3.02093327E-05 -1.12442925E-08
 -4.12096509E-03  3.63304551E-04 -7.78619625E-05  6.84868152E-08  2.86729954E-04
  5.37783961E-04 -9.58935319E-05 -4.22190511E-07 -4.07836488E-03 -4.28471176E-03
 -4.24399067E-03 -4.91204618E-05  6.20808339E-09 -3.93290359E-09 -2.56011685E-04
  1.19996691E-03  7.34082763E-05 -1.49619342E-05  2.99146256E-09 -2.55643177E-04
  1.20052320E-03  2.39769053E-05 -7.06552262E-05 -4.27086120E-09 -2.57443408E-04
  1.20055912E-03  5.04781965E-05  5.73922876E-05 -4.68769998E-09 -2.57295689E-04
  1.20011010E-03 -5.03868496E-05 -5.73203848E-05  7.54488360E-09 -2.55816772E-04
  1.20128953E-03 -2.40267621E-05  7.07872992E-05  3.82843997E-09 -2.56067045E-04
  1.20008074E-03 -7.34536733E-05  1.49461582E-05 -3.39504121E-09 -3.20815594E-01
 -1.72256868E-02  5.16639874E-05  2.91157470E-04 -6.56959291E-09  4.73063987E-03
 -4.48911794E-04 -1.51545115E-03  1.90507861E-08 -5.19830708E-03  1.88557369E-03
  1.69711713E-03  1.04051928E-07  3.15995199E-03  3.33982897E-03  3.25189352E-03
 -1.04027431E-04  6.69259061E-09  2.62376826E-09  2.47038943E-01  1.32633431E-02
  3.07111101E-04  9.78686338E-05 -7.43136792E-09 -3.62450081E-03 -1.59474208E-03
 -6.42373753E-04  4.72985516E-08  3.94139471E-03  1.73268280E-03  1.80319056E-03
 -1.77049038E-07 -2.61035495E-03 -2.39562200E-03 -2.50433266E-03  9.19903058E-05
 -1.43068177E-08 -1.15746217E-10 -5.73035225E-01 -3.07789985E-02  1.43986949E-05
 -2.40390252E-05  6.32819577E-09  8.66220880E-03 -3.57225561E-04 -1.90469697E-04
 -1.02211450E-09 -1.00643906E-02  2.01534197E-03  2.01249570E-03 -1.51123622E-07
  5.79985076E-03  5.79940400E-03  5.80568848E-03 -9.84737992E-05  2.93311647E-09
  3.82930529E-09  5.73118626E-01  3.07831898E-02  1.43342065E-05 -2.41847622E-05
  1.98189324E-08 -8.66103474E-03 -3.56797100E-04 -1.89504719E-04 -9.58354342E-08
  1.00540986E-02  2.01457611E-03  2.01089231E-03  2.10721746E-07 -5.80082968E-03
 -5.80040540E-03 -5.80662209E-03  9.85710175E-05 -6.01806676E-09 -4.81262953E-09
 -2.46826617E-01 -1.32521721E-02  3.07159009E-04  9.79913917E-05 -2.33048342E-09
  3.62268783E-03 -1.59507583E-03 -6.42884088E-04 -4.92993548E-09 -3.94288339E-03
  1.73402095E-03  1.80365632E-03  1.35178618E-07  2.60811986E-03  2.39342801E-03
  2.50209502E-03 -9.20960159E-05  2.21793791E-09  1.29796310E-09  3.21231822E-01
  1.72479192E-02  5.16479806E-05  2.91132841E-04 -8.58955767E-09 -4.73727886E-03
 -4.49596361E-04 -1.51511938E-03  4.74057918E-08  5.21069493E-03  1.88817715E-03
  1.69635014E-03 -1.70497455E-07 -3.16408096E-03 -3.34401940E-03 -3.25619769E-03
  1.03985307E-04  3.08442194E-09 -7.89314440E-09  1.21767881E-04 -4.71522929E-04
 -9.05161409E-05  3.92318105E-05 -7.24753826E-10 -9.36039079E-05  3.65891164E-04
  4.49948687E-05 -6.31070000E-05 -2.47974373E-09  2.20044051E-04 -8.07189581E-04
 -1.13075097E-04 -1.31283916E-04  4.21299410E-09 -2.20129942E-04  8.07904912E-04
 -1.13050433E-04 -1.31273739E-04  9.81366161E-09  9.34626216E-05 -3.65171279E-04
  4.49967811E-05 -6.30694210E-05 -4.84727356E-10 -1.21992561E-04  4.72199707E-04
 -9.06358229E-05  3.92483421E-05 -2.86014615E-09  4.73900181E-01  2.54516466E-02
  4.74640999E-05  1.95939833E-04  6.21449728E-09 -7.11367860E-03  6.75185882E-05
 -1.10753624E-03 -3.07188887E-08  8.12298068E-03 -1.99615951E-03  1.81605673E-03
  1.18598441E-07 -4.76374897E-03 -4.83150358E-03 -4.80210658E-03 -1.16907509E-04
  5.02297289E-09  5.47607589E-09  5.15970554E-01  2.77094043E-02 -1.44169095E-04
 -5.82164997E-05 -1.50132500E-08 -7.71416956E-03  8.76647221E-04 -1.18623494E-05
  7.74892738E-08  8.76894332E-03 -1.81336473E-03  2.03467399E-03 -2.01662365E-07
 -5.24781767E-03 -5.20061888E-03 -5.22869981E-03 -1.10414579E-04  4.52899434E-09
  9.89502649E-10 -4.28943115E-02 -2.30456192E-03 -2.68079938E-04  2.35352053E-04
 -2.53635824E-09  6.56970728E-04  1.40380462E-03 -1.28047214E-03  2.00374827E-08
 -7.68622152E-04 -1.70165881E-03  1.78417406E-03 -1.21067046E-07  5.75821178E-04
  2.92141994E-04  4.34432557E-04  1.36246850E-05  3.89211507E-10 -1.17588937E-09
  4.32639986E-02  2.32422882E-03 -2.68080199E-04  2.35281288E-04 -9.06629996E-10
 -6.62105047E-04  1.40340107E-03 -1.28051630E-03 -6.74990080E-10  7.75743052E-04
 -1.69999885E-03  1.78497997E-03  7.97407291E-08 -5.79538616E-04 -2.95911801E-04
 -4.38277263E-04 -1.35470237E-05 -1.23475177E-08  3.74366707E-09 -5.15846772E-01
 -2.77030829E-02 -1.44237268E-04 -5.80623624E-05 -5.88365665E-09  7.71484938E-03
  8.77050714E-04 -1.27960215E-05  8.00053195E-09 -8.77871175E-03 -1.81408438E-03
  2.03607935E-03  7.54917133E-08  5.24633723E-03  5.19930149E-03  5.22734843E-03
  1.10358035E-04 -5.95846448E-10 -4.87006421E-09 -4.73583948E-01 -2.54348962E-02
  4.73918703E-05  1.96017265E-04  6.92621815E-09  7.10986023E-03  6.74603768E-05
 -1.10789809E-03 -1.63773059E-08 -8.11964275E-03 -1.99502484E-03  1.81670334E-03
 -7.49402394E-08  4.76060011E-03  4.82819097E-03  4.79880719E-03  1.16921446E-04
  2.09749319E-09 -2.89942011E-09 -1.81493663E-04  6.75990211E-04  1.42986575E-04
 -1.44114972E-05  2.81274244E-09 -1.97143376E-04  7.40681337E-04  3.94738966E-05
 -1.50867224E-04 -3.36963238E-09  1.65740828E-05 -5.88019332E-05 -2.72781617E-05
  6.67414371E-06 -2.93729556E-10 -1.67895272E-05  5.95814839E-05 -2.73322389E-05
  6.59911888E-06  1.20733262E-09  1.97030433E-04 -7.39859209E-04  3.94756498E-05
 -1.50880449E-04 -2.29177736E-09  1.81300929E-04 -6.75189754E-04  1.42919669E-04
 -1.43856931E-05  1.68547377E-09 -3.09384715E-01 -1.67607913E-02  8.25027512E-05
 -2.21034283E-04  5.50190954E-10  7.18995231E-03 -1.29845170E-03  1.48088378E-03
 -6.01064355E-10 -2.09733118E-02  3.40396287E-03 -3.73533714E-03  1.50176310E-08
  3.03428856E-03  2.85571091E-03  3.13301245E-03  1.48334210E-04  1.65243904E-09
 -4.50669872E-09 -2.66553576E-01 -1.44396104E-02  2.33811186E-04 -3.39778845E-05
  1.53581353E-08  6.18316984E-03 -1.62121529E-03  8.69224868E-04 -6.72298689E-08
 -1.80280776E-02  4.10849695E-03 -2.30968314E-03  1.76921476E-07  2.41773120E-03