fubar
Freq      RPBEPBE                                                     6-31+G(d,p)
Number of atoms                            I                3
Info1-9                                    I   N=           9
          13          12        1002           0           0         100
           6          18         902
Charge                                     I                0
Multiplicity                               I                1
Number of electrons                        I               10
Number of alpha electrons                  I                5
Number of beta electrons                   I                5
Number of basis functions                  I               29
Number of independent functions            I               29
Number of point charges in /Mol/           I                0
Number of translation vectors              I                0
Atomic numbers                             I   N=           3
           8           1           1
Nuclear charges                            R   N=           3
  8.00000000E+00  1.00000000E+00  1.00000000E+00
Current cartesian coordinates              R   N=           9
  7.63278329E-17  1.24900090E-16  2.24056872E-01 -2.22044605E-16  1.45747461E+00
 -8.96227488E-01 -5.55111512E-16 -1.45747461E+00 -8.96227488E-01
Force Field                                I                0
Int Atom Types                             I   N=           3
           0           0           0
MM charges                                 R   N=           3
  0.00000000E+00  0.00000000E+00  0.00000000E+00
Integer atomic weights                     I   N=           3
          16           1           1
Real atomic weights                        R   N=           3
  1.59949146E+01  1.00782504E+00  1.00782504E+00
Atom fragment info                         I   N=           3
           0           0           0
Atom residue num                           I   N=           3
           0           0           0
Nuclear spins                              I   N=           3
           0           1           1
Nuclear ZEff                               R   N=           3
 -5.60000000E+00 -1.00000000E+00 -1.00000000E+00
Nuclear QMom                               R   N=           3
  0.00000000E+00  0.00000000E+00  0.00000000E+00
Nuclear GFac                               R   N=           3
  0.00000000E+00  2.79284600E+00  2.79284600E+00
MicOpt                                     I   N=           3
          -1          -1          -1
Number of contracted shells                I               11
Number of primitive shells                 I               22
Pure/Cartesian d shells                    I                1
Pure/Cartesian f shells                    I                0
Highest angular momentum                   I                2
Largest degree of contraction              I                6
Shell types                                I   N=          11
           0          -1          -1          -1           2           0
           0           1           0           0           1
Number of primitives per shell             I   N=          11
           6           3           1           1           1           3
           1           1           3           1           1
Shell to atom map                          I   N=          11
           1           1           1           1           1           2
           2           2           3           3           3
Primitive exponents                        R   N=          22
  5.48467166E+03  8.25234946E+02  1.88046958E+02  5.29645000E+01  1.68975704E+01
  5.79963534E+00  1.55396162E+01  3.59993359E+00  1.01376175E+00  2.70005823E-01
  8.45000000E-02  8.00000000E-01  1.87311370E+01  2.82539436E+00  6.40121692E-01
  1.61277759E-01  1.10000000E+00  1.87311370E+01  2.82539436E+00  6.40121692E-01
  1.61277759E-01  1.10000000E+00
Contraction coefficients                   R   N=          22
  1.83107443E-03  1.39501722E-02  6.84450781E-02  2.32714336E-01  4.70192898E-01
  3.58520853E-01 -1.10777550E-01 -1.48026263E-01  1.13076702E+00  1.00000000E+00
  1.00000000E+00  1.00000000E+00  3.34946043E-02  2.34726953E-01  8.13757326E-01
  1.00000000E+00  1.00000000E+00  3.34946043E-02  2.34726953E-01  8.13757326E-01
  1.00000000E+00  1.00000000E+00
P(S=P) Contraction coefficients            R   N=          22
  0.00000000E+00  0.00000000E+00  0.00000000E+00  0.00000000E+00  0.00000000E+00
  0.00000000E+00  7.08742682E-02  3.39752839E-01  7.27158577E-01  1.00000000E+00
  1.00000000E+00  0.00000000E+00  0.00000000E+00  0.00000000E+00  0.00000000E+00
  0.00000000E+00  0.00000000E+00  0.00000000E+00  0.00000000E+00  0.00000000E+00
  0.00000000E+00  0.00000000E+00
Coordinates of each shell                  R   N=          33
  4.85722573E-17  8.32667268E-17  2.24056872E-01  4.85722573E-17  8.32667268E-17
  2.24056872E-01  4.85722573E-17  8.32667268E-17  2.24056872E-01  4.85722573E-17
  8.32667268E-17  2.24056872E-01  4.85722573E-17  8.32667268E-17  2.24056872E-01
 -1.11022302E-16  1.45747461E+00 -8.96227488E-01 -1.11022302E-16  1.45747461E+00
 -8.96227488E-01 -1.11022302E-16  1.45747461E+00 -8.96227488E-01 -3.33066907E-16
 -1.45747461E+00 -8.96227488E-01 -3.33066907E-16 -1.45747461E+00 -8.96227488E-01
 -3.33066907E-16 -1.45747461E+00 -8.96227488E-01
Constraint Structure                       R   N=           9
  4.85722573E-17  8.32667268E-17  2.24056872E-01 -1.11022302E-16  1.45747461E+00
 -8.96227488E-01 -3.33066907E-16 -1.45747461E+00 -8.96227488E-01
Num ILSW                                   I              100
ILSW                                       I   N=         100
           0           1           0           0           2           0
           0           0           0           0        1009          -1
           0           0           0           0           0           0
           0           0           0           0           1           0
           1           0           0           0           0           0
           0           0      100000           0          -1           0
           0           0           0           0           0           0
           0           0           0           1           0           0
           0           0           1           0           0           0
           0           0           4          40           0           0
           0           0           0           0           0           0
           0           0           0           0           0           0
           0           0           0           0           0           0
           0           0           0           0           0           0
           0           0           0           0           0           0
           0           0           0           0           0           0
           0           0           0           0
Num RLSW                                   I               40
RLSW                                       R   N=          40
  1.00000000E+00  1.00000000E+00  1.00000000E+00  1.00000000E+00  0.00000000E+00
  0.00000000E+00  0.00000000E+00  1.00000000E+00  0.00000000E+00  0.00000000E+00
  0.00000000E+00  0.00000000E+00  1.00000000E+00  0.00000000E+00  0.00000000E+00
  0.00000000E+00  0.00000000E+00  1.00000000E+00  0.00000000E+00  0.00000000E+00
  0.00000000E+00  0.00000000E+00  1.00000000E+00  0.00000000E+00  0.00000000E+00
  0.00000000E+00  0.00000000E+00  1.00000000E+00  0.00000000E+00  0.00000000E+00
  0.00000000E+00  0.00000000E+00  0.00000000E+00  0.00000000E+00  0.00000000E+00
  0.00000000E+00  0.00000000E+00  0.00000000E+00  1.00000000E+00  1.00000000E+00
MxBond                                     I                2
NBond                                      I   N=           3
           2           1           1
IBond                                      I   N=           6
           2           3           1           0           1           0
RBond                                      R   N=           6
  1.00000000E+00  1.00000000E+00  1.00000000E+00  0.00000000E+00  1.00000000E+00
  0.00000000E+00
Virial Ratio                               R      2.009253468900887E+00
SCF Energy                                 R     -7.634861285921565E+01
Total Energy                               R     -7.634861285921565E+01
RMS Force                                  R      6.387279376626414E-06
RMS Density                                R      3.082330419671578E-10
External E-field                           R   N=          35
  0.00000000E+00  0.00000000E+00  0.00000000E+00  0.00000000E+00  0.00000000E+00
  0.00000000E+00  0.00000000E+00  0.00000000E+00  0.00000000E+00  0.00000000E+00
  0.00000000E+00  0.00000000E+00  0.00000000E+00  0.00000000E+00  0.00000000E+00
  0.00000000E+00  0.00000000E+00  0.00000000E+00  0.00000000E+00  0.00000000E+00
  0.00000000E+00  0.00000000E+00  0.00000000E+00  0.00000000E+00  0.00000000E+00
  0.00000000E+00  0.00000000E+00  0.00000000E+00  0.00000000E+00  0.00000000E+00
  0.00000000E+00  0.00000000E+00  0.00000000E+00  0.00000000E+00  0.00000000E+00
IOpCl                                      I                0
IROHF                                      I                0
Alpha Orbital Energies                     R   N=          29
 -1.87905558E+01 -9.29574088E-01 -4.82770054E-01 -3.37936052E-01 -2.61906565E-01
  5.50677397E-03  9.47191713E-02  1.42017346E-01  1.42504231E-01  1.82235252E-01
  2.18639031E-01  8.43251525E-01  9.32734049E-01  1.04466174E+00  1.05972178E+00
  1.07850576E+00  1.18863392E+00  1.43736258E+00  1.46586252E+00  1.56059731E+00
  2.14585126E+00  2.16850112E+00  2.40442342E+00  2.54293491E+00  2.56806864E+00
  2.92941423E+00  3.22247886E+00  3.42428220E+00  3.82921955E+00
Alpha MO coefficients                      R   N=         841
  9.92486246E-01  2.68814703E-02  0.00000000E+00  0.00000000E+00 -1.22334566E-03
  1.24133195E-02  0.00000000E+00  0.00000000E+00  5.20138414E-04 -1.02138757E-03
  0.00000000E+00  0.00000000E+00 -7.41598464E-04 -8.62173420E-03 -8.51300926E-03
 -8.56019539E-03  0.00000000E+00  0.00000000E+00  0.00000000E+00  3.06623829E-04
 -1.05565229E-03  0.00000000E+00  1.06702899E-04 -8.86832356E-05  3.06623829E-04
 -1.05565229E-03  0.00000000E+00 -1.06702899E-04 -8.86832356E-05 -2.10694927E-01
  4.70735259E-01  0.00000000E+00  0.00000000E+00 -1.25313606E-01  4.26635607E-01
  0.00000000E+00  0.00000000E+00 -4.76981002E-02  2.44079107E-02  0.00000000E+00
  0.00000000E+00 -1.28774388E-02 -8.13449340E-03  1.95860962E-03  4.45207636E-03
  0.00000000E+00  0.00000000E+00  0.00000000E+00  1.51385731E-01 -2.79272554E-03
  0.00000000E+00 -2.02983737E-02  1.17047680E-02  1.51385731E-01 -2.79272554E-03
  0.00000000E+00  2.02983737E-02  1.17047680E-02  0.00000000E+00  0.00000000E+00
  0.00000000E+00  5.21209432E-01  0.00000000E+00  0.00000000E+00  0.00000000E+00
  2.43979468E-01  0.00000000E+00  0.00000000E+00  0.00000000E+00  1.92731490E-02
  0.00000000E+00  0.00000000E+00  0.00000000E+00  0.00000000E+00  0.00000000E+00
  0.00000000E+00 -2.65800413E-02  2.46857992E-01  1.32575736E-01  0.00000000E+00
 -6.24654572E-03  1.57966937E-02 -2.46857992E-01 -1.32575736E-01  0.00000000E+00
 -6.24654572E-03 -1.57966937E-02 -8.33742911E-02  1.90253770E-01  0.00000000E+00
  0.00000000E+00  5.57178993E-01  3.27193405E-01  0.00000000E+00  0.00000000E+00
  3.18767682E-01  4.58511378E-02  0.00000000E+00  0.00000000E+00  8.36882247E-02
  8.18650358E-03  1.03981059E-02 -3.26362547E-02  0.00000000E+00  0.00000000E+00
  0.00000000E+00 -1.46296672E-01 -1.00645453E-01  0.00000000E+00  1.32806360E-02
  1.02308529E-02 -1.46296672E-01 -1.00645453E-01  0.00000000E+00 -1.32806360E-02
  1.02308529E-02  0.00000000E+00  0.00000000E+00  6.41524356E-01  0.00000000E+00
  0.00000000E+00  0.00000000E+00  4.16281414E-01  0.00000000E+00  0.00000000E+00
  0.00000000E+00  1.36615355E-01  0.00000000E+00  0.00000000E+00  0.00000000E+00
  0.00000000E+00  0.00000000E+00  0.00000000E+00 -2.79735772E-02  0.00000000E+00
  0.00000000E+00  0.00000000E+00  2.32478832E-02  0.00000000E+00  0.00000000E+00
  0.00000000E+00  0.00000000E+00  2.32478832E-02  0.00000000E+00  0.00000000E+00
  9.67873851E-02 -1.28979142E-01  0.00000000E+00  0.00000000E+00  2.44781598E-01
 -1.03333438E+00  0.00000000E+00  0.00000000E+00  2.39173372E-01  1.20589502E+00
  0.00000000E+00  0.00000000E+00 -3.87672930E-01  5.04511336E-02  6.35487002E-02
  4.39233277E-02  0.00000000E+00  0.00000000E+00  0.00000000E+00  9.48641116E-02
  1.14075613E-01  0.00000000E+00  2.26816872E-02 -1.32990580E-02  9.48641116E-02
  1.14075613E-01  0.00000000E+00 -2.26816872E-02 -1.32990580E-02  0.00000000E+00
  0.00000000E+00  0.00000000E+00 -3.84037369E-01  0.00000000E+00  0.00000000E+00
  0.00000000E+00 -6.08376278E-01  0.00000000E+00  0.00000000E+00  0.00000000E+00
  7.58196926E-01  0.00000000E+00  0.00000000E+00  0.00000000E+00  0.00000000E+00
  0.00000000E+00  0.00000000E+00  1.54488843E-02  9.11067938E-02  5.03824302E-01
  0.00000000E+00  6.43684224E-03 -6.41950881E-03 -9.11067938E-02 -5.03824302E-01
  0.00000000E+00  6.43684224E-03  6.41950881E-03  0.00000000E+00  0.00000000E+00
 -2.86406042E-01  0.00000000E+00  0.00000000E+00  0.00000000E+00 -4.55715200E-01
  0.00000000E+00  0.00000000E+00  0.00000000E+00  1.19263743E+00  0.00000000E+00
  0.00000000E+00  0.00000000E+00  0.00000000E+00  0.00000000E+00  0.00000000E+00
  1.00777082E-02  0.00000000E+00  0.00000000E+00  0.00000000E+00  7.40414545E-03
  0.00000000E+00  0.00000000E+00  0.00000000E+00  0.00000000E+00  7.40414545E-03
  0.00000000E+00  0.00000000E+00  5.76886739E-02 -5.96016917E-02  0.00000000E+00
  0.00000000E+00 -2.01213907E-01 -6.67333379E-01  0.00000000E+00  0.00000000E+00
 -3.13122586E-01  1.06046995E-01  0.00000000E+00  0.00000000E+00  1.30694463E+00
  3.01109447E-02  4.29269479E-02  4.84906744E-02  0.00000000E+00  0.00000000E+00
  0.00000000E+00  2.74322411E-02  4.21918159E-01  0.00000000E+00  7.32295549E-03
  4.80549966E-03  2.74322411E-02  4.21918159E-01  0.00000000E+00 -7.32295549E-03
  4.80549966E-03  0.00000000E+00  0.00000000E+00  0.00000000E+00 -2.07077361E-01
  0.00000000E+00  0.00000000E+00  0.00000000E+00 -4.30961288E-01  0.00000000E+00
  0.00000000E+00  0.00000000E+00 -1.61087023E+00  0.00000000E+00  0.00000000E+00
  0.00000000E+00  0.00000000E+00  0.00000000E+00  0.00000000E+00 -2.85347854E-02
  1.73561615E-01  1.74262978E+00  0.00000000E+00 -6.75574085E-03 -1.34741675E-02
 -1.73561615E-01 -1.74262978E+00  0.00000000E+00 -6.75574085E-03  1.34741675E-02
 -4.26525345E-02  6.33135405E-02  0.00000000E+00  0.00000000E+00 -2.38286875E-01
  7.05410534E-01  0.00000000E+00  0.00000000E+00 -5.80616676E-01  3.30967172E+00
  0.00000000E+00  0.00000000E+00 -1.14151398E+00  5.23255156E-03 -3.73561035E-02
  6.37308376E-03  0.00000000E+00  0.00000000E+00  0.00000000E+00 -1.82171754E-01
 -2.34973949E+00  0.00000000E+00 -4.02979746E-03 -7.25640644E-03 -1.82171754E-01
 -2.34973949E+00  0.00000000E+00  4.02979746E-03 -7.25640644E-03  0.00000000E+00
  0.00000000E+00  0.00000000E+00  6.20523179E-01  0.00000000E+00  0.00000000E+00
  0.00000000E+00 -9.12442186E-01  0.00000000E+00  0.00000000E+00  0.00000000E+00
 -7.20793695E-01  0.00000000E+00  0.00000000E+00  0.00000000E+00  0.00000000E+00
  0.00000000E+00  0.00000000E+00  3.00559922E-01 -5.77881431E-01  1.87965402E+00
  0.00000000E+00 -1.10917596E-01  1.25884146E-01  5.77881431E-01 -1.87965402E+00
  0.00000000E+00 -1.10917596E-01 -1.25884146E-01 -2.52024519E-03  6.82623295E-01
  0.00000000E+00  0.00000000E+00 -6.41492526E-01 -1.87939423E+00  0.00000000E+00
  0.00000000E+00  1.11867161E+00 -1.93090231E+00  0.00000000E+00  0.00000000E+00
  5.55338140E-01  2.61157115E-01 -2.86086004E-02  8.91047336E-02  0.00000000E+00
  0.00000000E+00  0.00000000E+00 -5.17535072E-01  2.19899756E+00  0.00000000E+00
 -1.35614909E-01  8.52935700E-02 -5.17535072E-01  2.19899756E+00  0.00000000E+00
  1.35614909E-01  8.52935700E-02  0.00000000E+00  0.00000000E+00  0.00000000E+00
 -6.26117872E-01  0.00000000E+00  0.00000000E+00  0.00000000E+00  1.54020606E+00
  0.00000000E+00  0.00000000E+00  0.00000000E+00 -9.27254324E-01  0.00000000E+00
  0.00000000E+00  0.00000000E+00  0.00000000E+00  0.00000000E+00  0.00000000E+00
  1.55495747E-01 -5.72631159E-01  4.81977937E-01  0.00000000E+00  1.03676863E-01
 -3.76110136E-03  5.72631159E-01 -4.81977937E-01  0.00000000E+00  1.03676863E-01
  3.76110136E-03  0.00000000E+00  0.00000000E+00 -9.68694409E-01  0.00000000E+00
  0.00000000E+00  0.00000000E+00  1.43819233E+00  0.00000000E+00  0.00000000E+00
  0.00000000E+00 -7.09821213E-01  0.00000000E+00  0.00000000E+00  0.00000000E+00
  0.00000000E+00  0.00000000E+00  0.00000000E+00 -4.39442576E-02  0.00000000E+00
  0.00000000E+00  0.00000000E+00  3.08879952E-02  0.00000000E+00  0.00000000E+00
  0.00000000E+00  0.00000000E+00  3.08879952E-02  0.00000000E+00  0.00000000E+00
  2.66121566E-02 -2.62434502E-01  0.00000000E+00  0.00000000E+00 -6.23090860E-01
  3.75384501E-01  0.00000000E+00  0.00000000E+00  1.21442583E+00  7.28531528E-01
  0.00000000E+00  0.00000000E+00 -9.26668725E-01 -1.95335616E-01  1.81628493E-01
 -1.61637416E-01  0.00000000E+00  0.00000000E+00  0.00000000E+00  6.06222518E-01
 -8.40219794E-01  0.00000000E+00  5.60993688E-02  9.92895641E-02  6.06222518E-01
 -8.40219794E-01  0.00000000E+00 -5.60993688E-02  9.92895641E-02 -7.41390311E-02
 -1.56797561E+00  0.00000000E+00  0.00000000E+00 -1.98605320E-01  3.53100281E+00
  0.00000000E+00  0.00000000E+00  1.22982165E-01 -1.20351718E+00  0.00000000E+00
  0.00000000E+00 -1.05227609E-01 -2.94155746E-01 -6.84565708E-01 -3.93628916E-01
  0.00000000E+00  0.00000000E+00  0.00000000E+00 -3.12038993E-01  6.27100355E-02
  0.00000000E+00 -6.94430428E-02 -5.47527448E-02 -3.12038993E-01  6.27100355E-02
  0.00000000E+00  6.94430428E-02 -5.47527448E-02  0.00000000E+00  0.00000000E+00
  0.00000000E+00  0.00000000E+00  0.00000000E+00  0.00000000E+00  0.00000000E+00
  0.00000000E+00  0.00000000E+00  0.00000000E+00  0.00000000E+00  0.00000000E+00
  0.00000000E+00  0.00000000E+00  0.00000000E+00  0.00000000E+00  6.84596328E-01
  0.00000000E+00  0.00000000E+00  0.00000000E+00  0.00000000E+00  3.48002944E-01
  0.00000000E+00  0.00000000E+00  0.00000000E+00  0.00000000E+00 -3.48002944E-01
  0.00000000E+00  0.00000000E+00  2.89796537E-02  2.77514622E-01  0.00000000E+00
  0.00000000E+00 -9.99734315E-02 -7.68648333E-01  0.00000000E+00  0.00000000E+00
  5.76954706E-01  2.57337234E-01  0.00000000E+00  0.00000000E+00 -1.87851371E-01
 -2.94793976E-01 -2.32196337E-01  7.92624823E-01  0.00000000E+00  0.00000000E+00
  0.00000000E+00  2.99559858E-01 -8.89775097E-02  0.00000000E+00 -1.68930989E-01
 -2.37221535E-01  2.99559858E-01 -8.89775097E-02  0.00000000E+00  1.68930989E-01
 -2.37221535E-01  0.00000000E+00  0.00000000E+00 -4.53091018E-02  0.00000000E+00
  0.00000000E+00  0.00000000E+00  3.11712344E-01  0.00000000E+00  0.00000000E+00
  0.00000000E+00 -8.72233959E-02  0.00000000E+00  0.00000000E+00  0.00000000E+00
  0.00000000E+00  0.00000000E+00  0.00000000E+00  7.93932788E-01  0.00000000E+00
  0.00000000E+00  0.00000000E+00 -2.91308817E-01  0.00000000E+00  0.00000000E+00
  0.00000000E+00  0.00000000E+00 -2.91308817E-01  0.00000000E+00  0.00000000E+00
 -4.79135506E-02 -5.65490147E-01  0.00000000E+00  0.00000000E+00  1.97808543E-01
  1.31800081E+00  0.00000000E+00  0.00000000E+00 -6.30124014E-01 -3.91450260E-01
  0.00000000E+00  0.00000000E+00  1.82650944E-01 -1.05227124E+00  5.10516812E-01
  3.16041342E-02  0.00000000E+00  0.00000000E+00  0.00000000E+00 -6.98668115E-01
  2.17771285E-01  0.00000000E+00 -1.46889991E-01  1.63067629E-01 -6.98668115E-01
  2.17771285E-01  0.00000000E+00  1.46889991E-01  1.63067629E-01  0.00000000E+00
  0.00000000E+00  0.00000000E+00  5.43365806E-02  0.00000000E+00  0.00000000E+00
  0.00000000E+00 -5.09266979E-01  0.00000000E+00  0.00000000E+00  0.00000000E+00
  7.54093432E-02  0.00000000E+00  0.00000000E+00  0.00000000E+00  0.00000000E+00
  0.00000000E+00  0.00000000E+00 -1.58067858E-01  1.26879364E-01  3.55831817E-02
  0.00000000E+00  4.70860015E-01  5.84763538E-01 -1.26879364E-01 -3.55831817E-02
  0.00000000E+00  4.70860015E-01 -5.84763538E-01  0.00000000E+00  0.00000000E+00
  0.00000000E+00  3.85494784E-01  0.00000000E+00  0.00000000E+00  0.00000000E+00
 -5.63838734E-01  0.00000000E+00  0.00000000E+00  0.00000000E+00  4.12622052E-01
  0.00000000E+00  0.00000000E+00  0.00000000E+00  0.00000000E+00  0.00000000E+00
  0.00000000E+00  7.45959959E-01  6.34331823E-01 -6.18551314E-01  0.00000000E+00
  3.49379249E-01 -2.50452002E-01 -6.34331823E-01  6.18551314E-01  0.00000000E+00
  3.49379249E-01  2.50452002E-01  0.00000000E+00  0.00000000E+00  0.00000000E+00
  0.00000000E+00  0.00000000E+00  0.00000000E+00  0.00000000E+00  0.00000000E+00
  0.00000000E+00  0.00000000E+00  0.00000000E+00  0.00000000E+00  0.00000000E+00
  0.00000000E+00  0.00000000E+00  0.00000000E+00  8.74059123E-01  0.00000000E+00
  0.00000000E+00  0.00000000E+00  0.00000000E+00 -7.07835615E-01  0.00000000E+00
  0.00000000E+00  0.00000000E+00  0.00000000E+00  7.07835615E-01  0.00000000E+00
  0.00000000E+00  0.00000000E+00  0.00000000E+00  3.45583342E-02  0.00000000E+00
  0.00000000E+00  0.00000000E+00 -5.21277024E-01  0.00000000E+00  0.00000000E+00
  0.00000000E+00  1.03599401E-01  0.00000000E+00  0.00000000E+00  0.00000000E+00
  0.00000000E+00  0.00000000E+00  0.00000000E+00  7.17527363E-01  0.00000000E+00
  0.00000000E+00  0.00000000E+00  7.63812718E-01  0.00000000E+00  0.00000000E+00
  0.00000000E+00  0.00000000E+00  7.63812718E-01  0.00000000E+00  0.00000000E+00
  7.04508761E-03 -1.15320404E-01  0.00000000E+00  0.00000000E+00  9.40091288E-02
  1.07497447E-01  0.00000000E+00  0.00000000E+00 -5.03869703E-01  1.65104562E-01
  0.00000000E+00  0.00000000E+00  1.86356375E-02 -3.82277729E-02 -8.17562437E-01
  8.69474139E-01  0.00000000E+00  0.00000000E+00  0.00000000E+00 -2.22909521E-02
 -1.33481325E-01  0.00000000E+00  4.20215857E-01  6.96857675E-01 -2.22909521E-02
 -1.33481325E-01  0.00000000E+00 -4.20215857E-01  6.96857675E-01 -2.62443995E-01
  1.75117992E-01  0.00000000E+00  0.00000000E+00 -4.00313242E-01  3.02436754E+00
  0.00000000E+00  0.00000000E+00 -8.60733927E-01  4.14018455E-01  0.00000000E+00
  0.00000000E+00 -2.00574145E-01 -1.23464316E+00 -1.00677018E-01 -3.80363454E-01
  0.00000000E+00  0.00000000E+00  0.00000000E+00 -6.69991357E-01 -9.22042180E-01
  0.00000000E+00  7.66887592E-01 -4.42025398E-01 -6.69991357E-01 -9.22042180E-01
  0.00000000E+00 -7.66887592E-01 -4.42025398E-01  0.00000000E+00  0.00000000E+00
  0.00000000E+00 -6.47620952E-01  0.00000000E+00  0.00000000E+00  0.00000000E+00
 -1.39421845E+00  0.00000000E+00  0.00000000E+00  0.00000000E+00  1.10063946E-01
  0.00000000E+00  0.00000000E+00  0.00000000E+00  0.00000000E+00  0.00000000E+00
  0.00000000E+00  1.48191201E+00  1.19842658E+00  4.35124614E-01  0.00000000E+00
 -8.05523837E-01  6.79317060E-01 -1.19842658E+00 -4.35124614E-01  0.00000000E+00
 -8.05523837E-01 -6.79317060E-01 -4.25690079E-01 -8.25410824E-04  0.00000000E+00
  0.00000000E+00  3.65557587E-01  3.06388433E+00  0.00000000E+00  0.00000000E+00
  5.21860235E-01 -6.77454166E-01  0.00000000E+00  0.00000000E+00 -1.64846405E-01
 -1.19645456E+00 -2.05601743E+00 -1.74103685E+00  0.00000000E+00  0.00000000E+00
  0.00000000E+00  6.70007309E-01  2.20101970E-02  0.00000000E+00 -5.91997610E-01
  4.22421889E-01  6.70007309E-01  2.20101970E-02  0.00000000E+00  5.91997610E-01
  4.22421889E-01
Total SCF Density                          R   N=         435
  2.07274515E+00 -1.76728629E-01  5.17021588E-01 -3.54143651E-18  7.82423887E-18
  8.23106999E-01 -8.55847158E-18  1.89085773E-17  1.02354878E-16  5.43318545E-01
 -4.25312324E-02  9.39659714E-02  1.45698691E-16  2.25513097E-16  6.52306853E-01
 -2.09698854E-01  5.26831779E-01  2.14539818E-17  5.18471228E-17  2.57653719E-01
  5.78455111E-01 -2.66637571E-18  6.36283655E-18  5.34109333E-01  5.82384067E-17
  8.98714651E-17  1.39813880E-17  3.46580432E-01 -6.44374131E-18  1.53768550E-17
  5.82384067E-17  2.54328800E-01  1.18004772E-16  3.37883544E-17  3.39619156E-17
  1.19051962E-01 -3.20221031E-02  7.64151155E-02  8.98714651E-17  1.18004772E-16
  3.67174481E-01  1.67910864E-01  5.57790206E-17  6.24626426E-17  2.07776429E-01
 -1.99582844E-02  4.03711191E-02  3.74532022E-18  9.05119052E-18  4.49797939E-02
  5.08055897E-02  2.24006125E-18  5.41348135E-18  2.69022374E-02  5.39823234E-03
 -8.32710842E-19  1.63872257E-18  1.75284156E-01  1.38356679E-17  2.74946816E-17
  3.64359468E-18  1.13740867E-01  8.67544044E-18  1.71726282E-17  5.86805005E-19
  3.73275107E-02 -2.01238453E-18  3.96024621E-18  1.38356679E-17  2.00906941E-02
  2.29012381E-17  8.80535381E-18  8.67544044E-18  9.40450528E-03  1.26148220E-17
  1.41811210E-18  2.65197593E-18  7.42908543E-04 -1.00005233E-02  1.96804009E-02
  2.74946816E-17  2.29012381E-17  9.64878926E-02  4.37581111E-02  1.71726282E-17
  1.26148220E-17  5.45818901E-02  7.04729281E-03  5.33824726E-18  3.01452169E-18
  1.43401947E-02 -1.50512001E-02 -5.00688916E-03 -4.24521421E-18  2.25023442E-18
  1.11825158E-02 -1.79783778E-03 -2.86044790E-18  1.20459388E-18  5.98621631E-03
  3.71241294E-04 -9.69721150E-19  3.20459193E-19  1.59251851E-03  4.15046249E-04
 -1.94572968E-02  5.34284648E-03  9.25689539E-19 -7.42001822E-18  1.11171602E-02
  8.26425913E-03  5.35693191E-19 -3.22592193E-18  6.43346042E-03  1.06653127E-03
  1.41768327E-19 -1.44910285E-20  1.70258076E-03  2.85177474E-04  3.68856169E-04
 -1.34257630E-02 -8.68706362E-03 -1.00212438E-17 -1.58637571E-17 -3.74633384E-02
 -1.77704269E-02 -6.24715119E-18 -8.17115276E-18 -2.12403827E-02 -2.75800051E-03
 -1.93310486E-18 -1.42757707E-18 -5.56450666E-03 -4.59176945E-04 -5.15524660E-04
  2.31644610E-03 -3.07673680E-18  1.12535512E-19 -7.22236440E-18 -2.30711587E-18
  1.96487590E-18  6.50544140E-19 -4.68655015E-18 -1.07996684E-18  1.09820149E-18
  1.32290124E-19 -1.53803339E-18 -8.53119402E-20  2.91298034E-19  6.06742175E-20
  5.83142342E-20 -8.63575731E-20  1.73172211E-34 -3.22038847E-18 -1.47711570E-18
 -3.58914622E-02 -4.79758635E-18 -6.15321216E-18 -1.93907172E-18 -2.32897605E-02
 -2.69601861E-18 -3.86048797E-18 -2.17584393E-19 -7.64324038E-03 -6.15668281E-19
 -1.17943017E-18  2.34772699E-19 -1.30076915E-20  4.64808374E-19  3.14930160E-19
  1.56504204E-03 -7.01704746E-18 -9.48290484E-19 -4.79758635E-18 -2.77075365E-02
 -1.12845345E-17 -2.47369841E-18 -2.69601861E-18 -1.29699687E-02 -5.89662604E-18
 -4.27208057E-19 -6.15668281E-19 -1.02456219E-03 -1.12964921E-18 -4.95699283E-20
  4.46580576E-19  8.59533995E-19  1.17655651E-19  2.26252258E-19  1.41299719E-03
 -3.87890085E-02  8.68747007E-02  4.69294847E-18  2.57329428E-01 -2.00968998E-01
  3.34460864E-02  1.06131410E-18  1.20456563E-01 -1.07710606E-01 -6.02634528E-03
 -1.57128739E-18  9.51546171E-03 -2.83859932E-02 -4.86349617E-03 -2.45462605E-03
  1.08918630E-02 -1.71839631E-18 -6.68964327E-19 -1.31229912E-02  2.10518636E-01
  1.58638720E-02 -4.09823773E-02  2.22712682E-18  1.38199448E-01 -1.11452548E-01
 -6.82702172E-02  6.59303447E-20  6.46915151E-02 -6.38997181E-02 -9.36358976E-03
 -9.71046797E-19  5.11030382E-03 -1.67721865E-02 -1.58423080E-03 -2.08601031E-03
  6.56258759E-03 -9.14342026E-19 -1.58955892E-19 -7.04773707E-03  9.40567444E-02
  5.54294932E-02 -2.19391709E-20  7.13297052E-20  2.98281666E-02  2.89868629E-18
  5.67253341E-18  6.70578527E-19  1.93553234E-02  1.73107497E-18  3.46525472E-18
  1.44594029E-19  6.35203565E-03  4.71413399E-19  1.05132161E-18 -1.43913598E-19
  3.78847006E-20 -3.84293464E-19 -2.61727684E-19 -1.30065291E-03 -1.32524332E-19
 -3.96860209E-19 -1.79227631E-19  1.08092815E-03  6.55080382E-03 -1.40512016E-02
  3.18343143E-18 -6.51151709E-03  1.98864466E-02 -8.62669586E-03  1.95549845E-18
 -3.04805781E-03  1.04033739E-02  2.26764789E-04  6.49319882E-19 -2.40781212E-04
  2.74548958E-03  5.45837995E-04  1.94857014E-04 -1.04942706E-03  9.01196817E-20
 -9.35261832E-20  3.32066886E-04 -1.31155480E-02 -4.21640175E-03  1.46119277E-19
  1.25485998E-03 -6.81428447E-03  1.49078428E-02  5.38778827E-18  1.64667715E-02
  8.46751629E-03  1.66800751E-02  3.24083124E-18  7.70813787E-03  5.40584791E-03
  1.50975152E-03  8.73415127E-19  6.08904063E-04  1.41108051E-03 -2.13856806E-05
  2.60123049E-04 -5.62054112E-04 -4.66266774E-20 -2.71107055E-19 -8.39753543E-04
  8.34941604E-03  2.06394977E-03  1.68437656E-19 -4.00799505E-04  9.82430684E-04
 -3.87890085E-02  8.68747007E-02 -3.81610099E-17 -2.57329428E-01 -2.00968998E-01
  3.34460864E-02 -1.89987334E-17 -1.20456563E-01 -1.07710606E-01 -6.02634528E-03
 -3.15593010E-18 -9.51546171E-03 -2.83859932E-02 -4.86349617E-03 -2.45462605E-03
  1.08918630E-02  4.67020743E-19  1.51645273E-18  1.31229912E-02 -3.32368370E-02
 -3.68527753E-02 -1.18207555E-18 -6.94750908E-03 -7.24874433E-03  2.10518636E-01
  1.58638720E-02 -4.09823773E-02 -2.07877046E-17 -1.38199448E-01 -1.11452548E-01
 -6.82702172E-02 -1.07073711E-17 -6.46915151E-02 -6.38997181E-02 -9.36358976E-03
 -1.82208334E-18 -5.11030382E-03 -1.67721865E-02 -1.58423080E-03 -2.08601031E-03
  6.56258759E-03  2.59341968E-19  1.01472810E-18  7.04773707E-03 -3.68527753E-02
 -1.48758098E-02 -6.00929604E-19 -9.03840169E-04 -6.31308341E-03  9.40567444E-02
  5.54294932E-02 -1.11286716E-18  2.41132484E-18  2.98281666E-02  1.56417951E-19
  2.36077479E-18  2.10721198E-18  1.93553234E-02  4.47412147E-19  1.73274494E-18
  1.06830105E-19  6.35203565E-03  3.70010503E-19  5.94105748E-19 -2.34813885E-19
  5.43448912E-21 -2.09528752E-19 -2.61727684E-19 -1.30065291E-03  7.32272610E-21
 -2.50828732E-20 -4.50409979E-19  1.08092815E-03 -1.69955395E-20  1.19206853E-19
  1.78731730E-18  5.22944314E-19  1.08092815E-03 -6.55080382E-03  1.40512016E-02
 -1.28327196E-19 -6.51151709E-03 -1.98864466E-02  8.62669586E-03  2.22988668E-19
 -3.04805781E-03 -1.04033739E-02 -2.26764789E-04  1.92104021E-19 -2.40781212E-04
 -2.74548958E-03 -5.45837995E-04 -1.94857014E-04  1.04942706E-03 -3.48194363E-20
 -3.16754224E-20  3.32066886E-04  6.94750908E-03  9.03840169E-04 -1.59796143E-20