fubar
SP        UPBEPBE                                                     6-31+G(d,p)
Number of atoms                            I                1
Info1-9                                    I   N=           9
          11          10           0           0           0         110
           1          18         902
Full Title                                 C   N=           1
fubar
Route                                      C   N=           3
#PBEPBE/6-31+g** scf=tight
Charge                                     I               -1
Multiplicity                               I                2
Number of electrons                        I                9
Number of alpha electrons                  I                5
Number of beta electrons                   I                4
Number of basis functions                  I               19
Number of independent functions            I               19
Number of point charges in /Mol/           I                0
Number of translation vectors              I                0
Atomic numbers                             I   N=           1
           8
Nuclear charges                            R   N=           1
  8.00000000E+00
Current cartesian coordinates              R   N=           3
  0.00000000E+00  0.00000000E+00  0.00000000E+00
Number of symbols in /Mol/                 I                0
Int Atom Types                             I   N=           1
           0
Force Field                                I                0
Atom Types                                 C   N=           1

MM charges                                 R   N=           1
  0.00000000E+00
Integer atomic weights                     I   N=           1
          16
Real atomic weights                        R   N=           1
  1.59949146E+01
Atom fragment info                         I   N=           1
           0
Atom residue num                           I   N=           1
           0
Nuclear spins                              I   N=           1
           0
Nuclear ZEff                               R   N=           1
 -5.60000000E+00
Nuclear ZNuc                               R   N=           1
  8.00000000E+00
Nuclear QMom                               R   N=           1
  0.00000000E+00
Nuclear GFac                               R   N=           1
  0.00000000E+00
MicOpt                                     I   N=           1
          -1
Number of residues                         I                0
Number of secondary structures             I                0
SymInf integers                            I   N=          26
           1           8           1           1           1           1
          -1          -1          -1           1          -1          -1
          -1           1          -1          -1          -1          -1
           1           1           1          -1           1           1
           1          -1
RotTr to input orientation                 R   N=          12
  0.00000000E+00  0.00000000E+00 -1.00000000E+00  0.00000000E+00  1.00000000E+00
  0.00000000E+00  1.00000000E+00  0.00000000E+00  0.00000000E+00  0.00000000E+00
  0.00000000E+00  0.00000000E+00
Number of contracted shells                I                5
Number of primitive shells                 I               12
Pure/Cartesian d shells                    I                1
Pure/Cartesian f shells                    I                0
Highest angular momentum                   I                2
Largest degree of contraction              I                6
Shell types                                I   N=           5
           0          -1          -1          -1           2
Number of primitives per shell             I   N=           5
           6           3           1           1           1
Shell to atom map                          I   N=           5
           1           1           1           1           1
Primitive exponents                        R   N=          12
  5.48467166E+03  8.25234946E+02  1.88046958E+02  5.29645000E+01  1.68975704E+01
  5.79963534E+00  1.55396162E+01  3.59993359E+00  1.01376175E+00  2.70005823E-01
  8.45000000E-02  8.00000000E-01
Contraction coefficients                   R   N=          12
  1.83107443E-03  1.39501722E-02  6.84450781E-02  2.32714336E-01  4.70192898E-01
  3.58520853E-01 -1.10777550E-01 -1.48026263E-01  1.13076702E+00  1.00000000E+00
  1.00000000E+00  1.00000000E+00
P(S=P) Contraction coefficients            R   N=          12
  0.00000000E+00  0.00000000E+00  0.00000000E+00  0.00000000E+00  0.00000000E+00
  0.00000000E+00  7.08742682E-02  3.39752839E-01  7.27158577E-01  1.00000000E+00
  1.00000000E+00  0.00000000E+00
Coordinates of each shell                  R   N=          15
  0.00000000E+00  0.00000000E+00  0.00000000E+00  0.00000000E+00  0.00000000E+00
  0.00000000E+00  0.00000000E+00  0.00000000E+00  0.00000000E+00  0.00000000E+00
  0.00000000E+00  0.00000000E+00  0.00000000E+00  0.00000000E+00  0.00000000E+00
Num ILSW                                   I              100
ILSW                                       I   N=         100
           1           1           0           0           2           0
           0           0           0           0        1009          -1
           5           0           0           0           0           0
           0           0           0           0           0           0
           1           0           0           0           0           0
           0           0      100000           0          -1           0
           0           0           0           0           0           0
           0           0           0           1           0           0
           0 -2000000000           1           0           0           0
           0           1           4          52           0           0
           0           0           0           0           0           0
           0           0           0           1           0           1
           0           0           0           0           0           0
           0           0           0           0           0           0
           0           0           0           0           0           0
           0           0           0           0           0           0
           0           0           0           0
Num RLSW                                   I               52
RLSW                                       R   N=          52
  1.00000000E+00  1.00000000E+00  1.00000000E+00  1.00000000E+00  0.00000000E+00
  0.00000000E+00  0.00000000E+00  1.00000000E+00  0.00000000E+00  0.00000000E+00
  0.00000000E+00  0.00000000E+00  1.00000000E+00  0.00000000E+00  0.00000000E+00
  0.00000000E+00  0.00000000E+00  1.00000000E+00  0.00000000E+00  0.00000000E+00
  0.00000000E+00  0.00000000E+00  1.00000000E+00  0.00000000E+00  0.00000000E+00
  0.00000000E+00  0.00000000E+00  1.00000000E+00  0.00000000E+00  0.00000000E+00
  0.00000000E+00  0.00000000E+00  1.00000000E+00  0.00000000E+00  0.00000000E+00
  0.00000000E+00  0.00000000E+00  0.00000000E+00  1.00000000E+00  1.00000000E+00
  0.00000000E+00  1.00000000E+00  0.00000000E+00  0.00000000E+00  0.00000000E+00
  0.00000000E+00  0.00000000E+00  0.00000000E+00  0.00000000E+00  0.00000000E+00
  0.00000000E+00  0.00000000E+00
MxBond                                     I                1
NBond                                      I   N=           1
           0
IBond                                      I   N=           1
           0
RBond                                      R   N=           1
  0.00000000E+00
Virial Ratio                               R      2.008527658996016E+00
SCF Energy                                 R     -7.504347303413294E+01
Total Energy                               R     -7.504347303413294E+01
S**2                                       R      7.536327217151255E-01
S**2 after annihilation                    R      7.500096854797018E-01
RMS Density                                R      9.019859263135497E-09
Job Status                                 I                1
Nuclear derivative order                   I                0
External E-field                           R   N=          35
  0.00000000E+00  0.00000000E+00  0.00000000E+00  0.00000000E+00  0.00000000E+00
  0.00000000E+00  0.00000000E+00  0.00000000E+00  0.00000000E+00  0.00000000E+00
  0.00000000E+00  0.00000000E+00  0.00000000E+00  0.00000000E+00  0.00000000E+00
  0.00000000E+00  0.00000000E+00  0.00000000E+00  0.00000000E+00  0.00000000E+00
  0.00000000E+00  0.00000000E+00  0.00000000E+00  0.00000000E+00  0.00000000E+00
  0.00000000E+00  0.00000000E+00  0.00000000E+00  0.00000000E+00  0.00000000E+00
  0.00000000E+00  0.00000000E+00  0.00000000E+00  0.00000000E+00  0.00000000E+00
IOpCl                                      I                1
IROHF                                      I                0
Alpha Orbital Energies                     R   N=          19
 -1.84639306E+01 -4.70848374E-01  2.12370923E-02  8.44522017E-02  8.44522017E-02
  3.11019630E-01  3.58817323E-01  3.74444548E-01  3.74444548E-01  1.33510522E+00
  1.38037015E+00  1.38037015E+00  1.43169667E+00  2.02276511E+00  2.03723481E+00
  2.03723481E+00  2.08336912E+00  2.08336912E+00  3.86528739E+00
Beta Orbital Energies                      R   N=          19
 -1.84421783E+01 -4.09008967E-01  1.06602839E-01  1.06602839E-01  1.33040202E-01
  3.20830967E-01  3.79541266E-01  3.79541266E-01  3.92087900E-01  1.39677763E+00
  1.39677763E+00  1.42355728E+00  1.46266487E+00  2.09439151E+00  2.09439151E+00
  2.10048577E+00  2.10048577E+00  2.11878471E+00  3.91375404E+00
Alpha MO coefficients                      R   N=         361
  9.92374098E-01  2.70434978E-02  0.00000000E+00  0.00000000E+00  0.00000000E+00
  1.27529001E-02  0.00000000E+00  0.00000000E+00  0.00000000E+00 -2.35475450E-03
  0.00000000E+00  0.00000000E+00  0.00000000E+00 -8.91812634E-03 -8.67857353E-03
 -8.91812634E-03  0.00000000E+00  0.00000000E+00  0.00000000E+00 -2.33849153E-01
  5.33222973E-01  0.00000000E+00  0.00000000E+00  0.00000000E+00  5.40820841E-01
  0.00000000E+00  0.00000000E+00  0.00000000E+00  2.79150895E-02  0.00000000E+00
  0.00000000E+00  0.00000000E+00 -1.11146115E-02  1.66872068E-02 -1.11146115E-02
  0.00000000E+00  0.00000000E+00  0.00000000E+00  0.00000000E+00  0.00000000E+00
  0.00000000E+00  6.58765278E-01  0.00000000E+00  0.00000000E+00  0.00000000E+00
  3.87828151E-01  0.00000000E+00  0.00000000E+00  0.00000000E+00  1.74069808E-01
  0.00000000E+00  0.00000000E+00  0.00000000E+00  0.00000000E+00  0.00000000E+00
  0.00000000E+00  0.00000000E+00  0.00000000E+00  0.00000000E+00  0.00000000E+00
  0.00000000E+00  6.27311874E-01  0.00000000E+00  0.00000000E+00  0.00000000E+00
  3.70217015E-01  0.00000000E+00  0.00000000E+00  0.00000000E+00  2.47652094E-01
  0.00000000E+00  0.00000000E+00  0.00000000E+00  0.00000000E+00  0.00000000E+00
  0.00000000E+00  0.00000000E+00  0.00000000E+00  6.27311874E-01  0.00000000E+00
  0.00000000E+00  0.00000000E+00  3.70217015E-01  0.00000000E+00  0.00000000E+00
  0.00000000E+00  2.47652094E-01  0.00000000E+00  0.00000000E+00  0.00000000E+00
  0.00000000E+00  0.00000000E+00  0.00000000E+00  0.00000000E+00  0.00000000E+00
  1.06329546E-01 -4.48949032E-02  0.00000000E+00  0.00000000E+00  0.00000000E+00
 -1.30946685E+00  0.00000000E+00  0.00000000E+00  0.00000000E+00  1.64240591E+00
  0.00000000E+00  0.00000000E+00  0.00000000E+00  9.33149851E-02  8.85755586E-02
  9.33149851E-02  0.00000000E+00  0.00000000E+00  0.00000000E+00  0.00000000E+00
  0.00000000E+00  0.00000000E+00 -2.76805268E-01  0.00000000E+00  0.00000000E+00
  0.00000000E+00 -4.93758852E-01  0.00000000E+00  0.00000000E+00  0.00000000E+00
  1.20516267E+00  0.00000000E+00  0.00000000E+00  0.00000000E+00  0.00000000E+00
  0.00000000E+00  0.00000000E+00  0.00000000E+00  0.00000000E+00  0.00000000E+00
  0.00000000E+00  0.00000000E+00 -3.07622439E-01  0.00000000E+00  0.00000000E+00
  0.00000000E+00 -5.38895715E-01  0.00000000E+00  0.00000000E+00  0.00000000E+00
  1.19984505E+00  0.00000000E+00  0.00000000E+00  0.00000000E+00  0.00000000E+00
  0.00000000E+00  0.00000000E+00  0.00000000E+00  0.00000000E+00 -3.07622439E-01
  0.00000000E+00  0.00000000E+00  0.00000000E+00 -5.38895715E-01  0.00000000E+00
  0.00000000E+00  0.00000000E+00  1.19984505E+00  0.00000000E+00  0.00000000E+00
  0.00000000E+00  0.00000000E+00  0.00000000E+00  0.00000000E+00  0.00000000E+00
  0.00000000E+00  0.00000000E+00  0.00000000E+00  0.00000000E+00 -9.61171944E-01
  0.00000000E+00  0.00000000E+00  0.00000000E+00  1.46196078E+00  0.00000000E+00
  0.00000000E+00  0.00000000E+00 -6.83484356E-01  0.00000000E+00  0.00000000E+00
  0.00000000E+00  0.00000000E+00  0.00000000E+00  0.00000000E+00  0.00000000E+00
  0.00000000E+00  0.00000000E+00  0.00000000E+00  0.00000000E+00 -9.72775720E-01
  0.00000000E+00  0.00000000E+00  0.00000000E+00  1.45054079E+00  0.00000000E+00
  0.00000000E+00  0.00000000E+00 -6.70006358E-01  0.00000000E+00  0.00000000E+00
  0.00000000E+00  0.00000000E+00  0.00000000E+00  0.00000000E+00  0.00000000E+00
  0.00000000E+00 -9.72775720E-01  0.00000000E+00  0.00000000E+00  0.00000000E+00
  1.45054079E+00  0.00000000E+00  0.00000000E+00  0.00000000E+00 -6.70006358E-01
  0.00000000E+00  0.00000000E+00  0.00000000E+00  0.00000000E+00  0.00000000E+00
  0.00000000E+00  0.00000000E+00  0.00000000E+00 -5.35493611E-02 -1.71335066E+00
  0.00000000E+00  0.00000000E+00  0.00000000E+00  3.60825926E+00  0.00000000E+00
  0.00000000E+00  0.00000000E+00 -1.26302256E+00  0.00000000E+00  0.00000000E+00
  0.00000000E+00 -4.86660217E-01 -4.85074412E-01 -4.86660217E-01  0.00000000E+00
  0.00000000E+00  0.00000000E+00  8.94448225E-03 -1.00972255E-02  0.00000000E+00
  0.00000000E+00  0.00000000E+00 -5.31519016E-02  0.00000000E+00  0.00000000E+00
  0.00000000E+00  1.37047916E-02  0.00000000E+00  0.00000000E+00  0.00000000E+00
 -4.84492707E-01  1.01517874E+00 -4.84492707E-01  0.00000000E+00  0.00000000E+00
  0.00000000E+00  0.00000000E+00  0.00000000E+00  0.00000000E+00  0.00000000E+00
  0.00000000E+00  0.00000000E+00  0.00000000E+00  0.00000000E+00  0.00000000E+00
  0.00000000E+00  0.00000000E+00  0.00000000E+00  0.00000000E+00  0.00000000E+00
  0.00000000E+00  0.00000000E+00  0.00000000E+00  0.00000000E+00  1.00000000E+00
  0.00000000E+00  0.00000000E+00  0.00000000E+00  0.00000000E+00  0.00000000E+00
  0.00000000E+00  0.00000000E+00  0.00000000E+00  0.00000000E+00  0.00000000E+00
  0.00000000E+00  0.00000000E+00  0.00000000E+00  0.00000000E+00  0.00000000E+00
  0.00000000E+00  1.00000000E+00  0.00000000E+00  0.00000000E+00  0.00000000E+00
  0.00000000E+00  0.00000000E+00  0.00000000E+00  0.00000000E+00  0.00000000E+00
  0.00000000E+00  0.00000000E+00  0.00000000E+00  0.00000000E+00  0.00000000E+00
  0.00000000E+00  0.00000000E+00  0.00000000E+00  0.00000000E+00  0.00000000E+00
  0.00000000E+00  1.00000000E+00  0.00000000E+00  3.09743721E-15 -4.94110507E-14
  0.00000000E+00  0.00000000E+00  0.00000000E+00  6.45867792E-14  0.00000000E+00
  0.00000000E+00  0.00000000E+00 -3.35281666E-14  0.00000000E+00  0.00000000E+00
  0.00000000E+00  8.66025404E-01  5.27239622E-14 -8.66025404E-01  0.00000000E+00
  0.00000000E+00  0.00000000E+00 -4.79048269E-01  2.05582933E-01  0.00000000E+00
  0.00000000E+00  0.00000000E+00  3.85090646E+00  0.00000000E+00  0.00000000E+00
  0.00000000E+00 -8.42650048E-01  0.00000000E+00  0.00000000E+00  0.00000000E+00
 -1.59859762E+00 -1.58490125E+00 -1.59859762E+00  0.00000000E+00  0.00000000E+00
  0.00000000E+00
Beta MO coefficients                       R   N=         361
  9.92760141E-01  2.61458456E-02  0.00000000E+00  0.00000000E+00  0.00000000E+00
  1.12001368E-02  0.00000000E+00  0.00000000E+00  0.00000000E+00 -1.98965927E-03
  0.00000000E+00  0.00000000E+00  0.00000000E+00 -8.05216589E-03 -8.21097493E-03
 -8.05216589E-03  0.00000000E+00  0.00000000E+00  0.00000000E+00 -2.31309077E-01
  5.16207954E-01  0.00000000E+00  0.00000000E+00  0.00000000E+00  5.46916953E-01
  0.00000000E+00  0.00000000E+00  0.00000000E+00  4.41461901E-02  0.00000000E+00
  0.00000000E+00  0.00000000E+00  7.13381099E-04 -8.31327921E-03  7.13381099E-04
  0.00000000E+00  0.00000000E+00  0.00000000E+00  0.00000000E+00  0.00000000E+00
  0.00000000E+00  0.00000000E+00  6.08969581E-01  0.00000000E+00  0.00000000E+00
  0.00000000E+00  3.60879997E-01  0.00000000E+00  0.00000000E+00  0.00000000E+00
  2.85822551E-01  0.00000000E+00  0.00000000E+00  0.00000000E+00  0.00000000E+00
  0.00000000E+00  0.00000000E+00  0.00000000E+00  0.00000000E+00  6.08969581E-01
  0.00000000E+00  0.00000000E+00  0.00000000E+00  3.60879997E-01  0.00000000E+00
  0.00000000E+00  0.00000000E+00  2.85822551E-01  0.00000000E+00  0.00000000E+00
  0.00000000E+00  0.00000000E+00  0.00000000E+00  0.00000000E+00  0.00000000E+00
  0.00000000E+00  0.00000000E+00  0.00000000E+00  0.00000000E+00  5.85502726E-01
  0.00000000E+00  0.00000000E+00  0.00000000E+00  3.55588693E-01  0.00000000E+00
  0.00000000E+00  0.00000000E+00  3.23023344E-01  0.00000000E+00  0.00000000E+00
  0.00000000E+00  0.00000000E+00  0.00000000E+00  0.00000000E+00  0.00000000E+00
  1.09801343E-01 -3.68519771E-02  0.00000000E+00  0.00000000E+00  0.00000000E+00
 -1.34751291E+00  0.00000000E+00  0.00000000E+00  0.00000000E+00  1.65266298E+00
  0.00000000E+00  0.00000000E+00  0.00000000E+00  9.36467011E-02  9.57002524E-02
  9.36467011E-02  0.00000000E+00  0.00000000E+00  0.00000000E+00  0.00000000E+00
  0.00000000E+00  0.00000000E+00  0.00000000E+00 -3.23829624E-01  0.00000000E+00
  0.00000000E+00  0.00000000E+00 -5.60881659E-01  0.00000000E+00  0.00000000E+00
  0.00000000E+00  1.19435914E+00  0.00000000E+00  0.00000000E+00  0.00000000E+00
  0.00000000E+00  0.00000000E+00  0.00000000E+00  0.00000000E+00  0.00000000E+00
 -3.23829624E-01  0.00000000E+00  0.00000000E+00  0.00000000E+00 -5.60881659E-01
  0.00000000E+00  0.00000000E+00  0.00000000E+00  1.19435914E+00  0.00000000E+00
  0.00000000E+00  0.00000000E+00  0.00000000E+00  0.00000000E+00  0.00000000E+00
  0.00000000E+00  0.00000000E+00  0.00000000E+00  0.00000000E+00  0.00000000E+00
 -3.36997874E-01  0.00000000E+00  0.00000000E+00  0.00000000E+00 -5.87771736E-01
  0.00000000E+00  0.00000000E+00  0.00000000E+00  1.18913573E+00  0.00000000E+00
  0.00000000E+00  0.00000000E+00  0.00000000E+00  0.00000000E+00  0.00000000E+00
  0.00000000E+00  0.00000000E+00  0.00000000E+00  0.00000000E+00  0.00000000E+00
 -9.79150028E-01  0.00000000E+00  0.00000000E+00  0.00000000E+00  1.44454671E+00
  0.00000000E+00  0.00000000E+00  0.00000000E+00 -6.64590069E-01  0.00000000E+00
  0.00000000E+00  0.00000000E+00  0.00000000E+00  0.00000000E+00  0.00000000E+00
  0.00000000E+00  0.00000000E+00 -9.79150028E-01  0.00000000E+00  0.00000000E+00
  0.00000000E+00  1.44454671E+00  0.00000000E+00  0.00000000E+00  0.00000000E+00
 -6.64590069E-01  0.00000000E+00  0.00000000E+00  0.00000000E+00  0.00000000E+00
  0.00000000E+00  0.00000000E+00  0.00000000E+00  0.00000000E+00  0.00000000E+00
  0.00000000E+00  0.00000000E+00 -9.88970851E-01  0.00000000E+00  0.00000000E+00
  0.00000000E+00  1.43513723E+00  0.00000000E+00  0.00000000E+00  0.00000000E+00
 -6.56871654E-01  0.00000000E+00  0.00000000E+00  0.00000000E+00  0.00000000E+00
  0.00000000E+00  0.00000000E+00  0.00000000E+00 -5.41934524E-02 -1.71706455E+00
  0.00000000E+00  0.00000000E+00  0.00000000E+00  3.61907137E+00  0.00000000E+00
  0.00000000E+00  0.00000000E+00 -1.25396283E+00  0.00000000E+00  0.00000000E+00
  0.00000000E+00 -4.98608857E-01 -4.93935333E-01 -4.98608857E-01  0.00000000E+00
  0.00000000E+00  0.00000000E+00  2.82350523E-15 -5.87239711E-14  0.00000000E+00
  0.00000000E+00  0.00000000E+00  8.56472582E-14  0.00000000E+00  0.00000000E+00
  0.00000000E+00 -3.89124545E-14  0.00000000E+00  0.00000000E+00  0.00000000E+00
  8.66025404E-01 -9.10459630E-14 -8.66025404E-01  0.00000000E+00  0.00000000E+00
  0.00000000E+00  0.00000000E+00  0.00000000E+00  0.00000000E+00  0.00000000E+00
  0.00000000E+00  0.00000000E+00  0.00000000E+00  0.00000000E+00  0.00000000E+00
  0.00000000E+00  0.00000000E+00  0.00000000E+00  0.00000000E+00  0.00000000E+00
  0.00000000E+00  0.00000000E+00  0.00000000E+00  1.00000000E+00  0.00000000E+00
  0.00000000E+00  0.00000000E+00  0.00000000E+00  0.00000000E+00  0.00000000E+00
  0.00000000E+00  0.00000000E+00  0.00000000E+00  0.00000000E+00  0.00000000E+00
  0.00000000E+00  0.00000000E+00  0.00000000E+00  0.00000000E+00  0.00000000E+00
  0.00000000E+00  0.00000000E+00  0.00000000E+00  1.00000000E+00  0.00000000E+00
  0.00000000E+00  0.00000000E+00  0.00000000E+00  0.00000000E+00  0.00000000E+00
  0.00000000E+00  0.00000000E+00  0.00000000E+00  0.00000000E+00  0.00000000E+00
  0.00000000E+00  0.00000000E+00  0.00000000E+00  0.00000000E+00  0.00000000E+00
  1.00000000E+00  0.00000000E+00  0.00000000E+00 -1.34731670E-03  8.54585309E-03
  0.00000000E+00  0.00000000E+00  0.00000000E+00 -5.50761677E-03  0.00000000E+00
  0.00000000E+00  0.00000000E+00  1.77209185E-03  0.00000000E+00  0.00000000E+00
  0.00000000E+00 -4.98845509E-01  1.00111861E+00 -4.98845509E-01  0.00000000E+00
  0.00000000E+00  0.00000000E+00 -4.78707495E-01  2.19349963E-01  0.00000000E+00
  0.00000000E+00  0.00000000E+00  3.82706824E+00  0.00000000E+00  0.00000000E+00
  0.00000000E+00 -8.35512521E-01  0.00000000E+00  0.00000000E+00  0.00000000E+00
 -1.59050425E+00 -1.59075164E+00 -1.59050425E+00  0.00000000E+00  0.00000000E+00
  0.00000000E+00
Orthonormal basis                          R   N=         361
  4.59663719E-02  2.16427895E-01  0.00000000E+00  0.00000000E+00  0.00000000E+00
  2.61300377E-01  0.00000000E+00  0.00000000E+00  0.00000000E+00  2.02493944E-01
  0.00000000E+00  0.00000000E+00  0.00000000E+00  1.88153971E-01  1.88153971E-01
  1.88153971E-01  0.00000000E+00  0.00000000E+00  0.00000000E+00  9.50255755E-01
  1.80379177E-01  0.00000000E+00  0.00000000E+00  0.00000000E+00 -1.50269768E-02
  0.00000000E+00  0.00000000E+00  0.00000000E+00 -1.25524514E-01  0.00000000E+00
  0.00000000E+00  0.00000000E+00 -9.45579942E-02 -9.45579942E-02 -9.45579942E-02
  0.00000000E+00  0.00000000E+00  0.00000000E+00  2.91092879E-17  1.03810830E-16
  0.00000000E+00  0.00000000E+00  0.00000000E+00 -3.40718639E-16  0.00000000E+00
  0.00000000E+00  0.00000000E+00  1.34861170E-17  0.00000000E+00  0.00000000E+00
  0.00000000E+00  8.78439709E-01 -8.53052863E-01 -2.53868459E-02  0.00000000E+00
  0.00000000E+00  0.00000000E+00 -8.44869698E-16  1.67731823E-15  0.00000000E+00
  0.00000000E+00  0.00000000E+00  1.79108161E-15  0.00000000E+00  0.00000000E+00
  0.00000000E+00 -4.38036148E-15  0.00000000E+00  0.00000000E+00  0.00000000E+00
 -4.77853198E-01 -5.21824505E-01  9.99677702E-01  0.00000000E+00  0.00000000E+00
  0.00000000E+00  2.25073338E-01 -7.19335415E-01  0.00000000E+00  0.00000000E+00
  0.00000000E+00  1.12308346E-01  0.00000000E+00  0.00000000E+00  0.00000000E+00
  1.01615881E+00  0.00000000E+00  0.00000000E+00  0.00000000E+00 -1.59043103E-01
 -1.59043103E-01 -1.59043103E-01  0.00000000E+00  0.00000000E+00  0.00000000E+00
 -3.73766816E-01  1.37221686E+00  0.00000000E+00  0.00000000E+00  0.00000000E+00
 -1.32238983E-01  0.00000000E+00  0.00000000E+00  0.00000000E+00  7.40113812E-01
  0.00000000E+00  0.00000000E+00  0.00000000E+00 -6.99993679E-01 -6.99993679E-01
 -6.99993679E-01  0.00000000E+00  0.00000000E+00  0.00000000E+00 -4.33328958E-01
 -8.86120876E-01  0.00000000E+00  0.00000000E+00  0.00000000E+00  5.45532674E+00
  0.00000000E+00  0.00000000E+00  0.00000000E+00 -1.83484263E+00  0.00000000E+00
  0.00000000E+00  0.00000000E+00 -1.49210169E+00 -1.49210169E+00 -1.49210169E+00
  0.00000000E+00  0.00000000E+00  0.00000000E+00  0.00000000E+00  0.00000000E+00
  0.00000000E+00  0.00000000E+00  0.00000000E+00  0.00000000E+00  0.00000000E+00
  0.00000000E+00  0.00000000E+00  0.00000000E+00  0.00000000E+00  0.00000000E+00
  0.00000000E+00  0.00000000E+00  0.00000000E+00  0.00000000E+00  1.00000000E+00
  0.00000000E+00  0.00000000E+00  0.00000000E+00  0.00000000E+00  0.00000000E+00
  0.00000000E+00  0.00000000E+00  0.00000000E+00  0.00000000E+00  0.00000000E+00
  0.00000000E+00  0.00000000E+00  0.00000000E+00  0.00000000E+00  0.00000000E+00
  0.00000000E+00  0.00000000E+00  0.00000000E+00  0.00000000E+00  1.00000000E+00
  0.00000000E+00  0.00000000E+00  0.00000000E+00  0.00000000E+00  0.00000000E+00
  0.00000000E+00  0.00000000E+00  0.00000000E+00  0.00000000E+00  0.00000000E+00
  0.00000000E+00  0.00000000E+00  0.00000000E+00  0.00000000E+00  0.00000000E+00
  0.00000000E+00  0.00000000E+00  0.00000000E+00  0.00000000E+00  1.00000000E+00
  0.00000000E+00  0.00000000E+00  0.00000000E+00  0.00000000E+00  3.38496871E-01
  0.00000000E+00  0.00000000E+00  0.00000000E+00  4.84301624E-01  0.00000000E+00
  0.00000000E+00  0.00000000E+00  4.13451438E-01  0.00000000E+00  0.00000000E+00
  0.00000000E+00  0.00000000E+00  0.00000000E+00  0.00000000E+00  0.00000000E+00
  0.00000000E+00  0.00000000E+00  0.00000000E+00  8.79966812E-01  0.00000000E+00
  0.00000000E+00  0.00000000E+00 -6.66489147E-02  0.00000000E+00  0.00000000E+00
  0.00000000E+00 -6.42367665E-01  0.00000000E+00  0.00000000E+00  0.00000000E+00
  0.00000000E+00  0.00000000E+00  0.00000000E+00  0.00000000E+00  0.00000000E+00
  0.00000000E+00  0.00000000E+00 -7.38595040E-01  0.00000000E+00  0.00000000E+00
  0.00000000E+00  1.51411613E+00  0.00000000E+00  0.00000000E+00  0.00000000E+00
 -1.16888405E+00  0.00000000E+00  0.00000000E+00  0.00000000E+00  0.00000000E+00
  0.00000000E+00  0.00000000E+00  0.00000000E+00  0.00000000E+00  0.00000000E+00
  3.38496871E-01  0.00000000E+00  0.00000000E+00  0.00000000E+00  4.84301624E-01
  0.00000000E+00  0.00000000E+00  0.00000000E+00  4.13451438E-01  0.00000000E+00
  0.00000000E+00  0.00000000E+00  0.00000000E+00  0.00000000E+00  0.00000000E+00
  0.00000000E+00  0.00000000E+00  0.00000000E+00  0.00000000E+00  8.79966812E-01
  0.00000000E+00  0.00000000E+00  0.00000000E+00 -6.66489147E-02  0.00000000E+00
  0.00000000E+00  0.00000000E+00 -6.42367665E-01  0.00000000E+00  0.00000000E+00
  0.00000000E+00  0.00000000E+00  0.00000000E+00  0.00000000E+00  0.00000000E+00
  0.00000000E+00  0.00000000E+00  0.00000000E+00 -7.38595040E-01  0.00000000E+00
  0.00000000E+00  0.00000000E+00  1.51411613E+00  0.00000000E+00  0.00000000E+00
  0.00000000E+00 -1.16888405E+00  0.00000000E+00  0.00000000E+00  0.00000000E+00
  0.00000000E+00  0.00000000E+00  0.00000000E+00  0.00000000E+00  0.00000000E+00
  0.00000000E+00  3.38496871E-01  0.00000000E+00  0.00000000E+00  0.00000000E+00
  4.84301624E-01  0.00000000E+00  0.00000000E+00  0.00000000E+00  4.13451438E-01
  0.00000000E+00  0.00000000E+00  0.00000000E+00  0.00000000E+00  0.00000000E+00
  0.00000000E+00  0.00000000E+00  0.00000000E+00  0.00000000E+00  0.00000000E+00
  8.79966812E-01  0.00000000E+00  0.00000000E+00  0.00000000E+00 -6.66489147E-02
  0.00000000E+00  0.00000000E+00  0.00000000E+00 -6.42367665E-01  0.00000000E+00
  0.00000000E+00  0.00000000E+00  0.00000000E+00  0.00000000E+00  0.00000000E+00
  0.00000000E+00  0.00000000E+00  0.00000000E+00  0.00000000E+00 -7.38595040E-01
  0.00000000E+00  0.00000000E+00  0.00000000E+00  1.51411613E+00  0.00000000E+00
  0.00000000E+00  0.00000000E+00 -1.16888405E+00  0.00000000E+00  0.00000000E+00
  0.00000000E+00  0.00000000E+00  0.00000000E+00  0.00000000E+00  0.00000000E+00
  0.00000000E+00
Total SCF Density                          R   N=         190
  2.07856836E+00 -1.91303506E-01  5.52212347E-01  0.00000000E+00  0.00000000E+00
  7.64364139E-01  0.00000000E+00  0.00000000E+00  5.05767566E-18  4.33971692E-01
  0.00000000E+00  0.00000000E+00  1.47141048E-31 -5.05767566E-18  7.64364139E-01
 -2.29202654E-01  5.71338699E-01  0.00000000E+00  0.00000000E+00  0.00000000E+00
  5.91893416E-01  0.00000000E+00  0.00000000E+00  4.52006470E-01  3.00832573E-18
 -1.38666956E-32  0.00000000E+00  2.67295010E-01  0.00000000E+00  0.00000000E+00
  3.00832573E-18  2.55487720E-01 -3.00832573E-18  0.00000000E+00  1.78927534E-18
  1.50410675E-01  0.00000000E+00  0.00000000E+00 -1.38666956E-32 -3.00832573E-18
  4.52006470E-01  0.00000000E+00 -6.81779200E-32 -1.78927534E-18  2.67295010E-01
 -2.10513863E-02  3.75578794E-02  0.00000000E+00  0.00000000E+00  0.00000000E+00
  3.91890476E-02  0.00000000E+00  0.00000000E+00  0.00000000E+00  2.73764194E-03
  0.00000000E+00  0.00000000E+00  3.29412338E-01  3.28727643E-18  7.70371978E-33
  0.00000000E+00  1.94832660E-01  1.94907878E-18 -3.77482269E-32  0.00000000E+00
  1.43026090E-01  0.00000000E+00  0.00000000E+00  3.28727643E-18  1.14671145E-01
 -3.28727643E-18  0.00000000E+00  1.94907878E-18  6.75091717E-02 -1.94907878E-18
  0.00000000E+00  1.72561600E-18  3.03002980E-02  0.00000000E+00  0.00000000E+00
  7.70371978E-33 -3.28727643E-18  3.29412338E-01  0.00000000E+00 -3.77482269E-32
 -1.94907878E-18  1.94832660E-01  0.00000000E+00 -2.23407874E-32 -1.72561600E-18
  1.43026090E-01 -1.44098560E-02 -6.01002122E-03  0.00000000E+00  0.00000000E+00
  0.00000000E+00 -5.82477067E-03  0.00000000E+00  0.00000000E+00  0.00000000E+00
 -2.41751254E-04  0.00000000E+00  0.00000000E+00  0.00000000E+00  2.68413855E-04
 -1.87432725E-02  4.15723932E-03  0.00000000E+00  0.00000000E+00  0.00000000E+00
  4.27547488E-03  0.00000000E+00  0.00000000E+00  0.00000000E+00  1.35598221E-04
  0.00000000E+00  0.00000000E+00  0.00000000E+00 -4.78896102E-05  4.90311231E-04
 -1.44098560E-02 -6.01002122E-03  0.00000000E+00  0.00000000E+00  0.00000000E+00
 -5.82477067E-03  0.00000000E+00  0.00000000E+00  0.00000000E+00 -2.41751254E-04
  0.00000000E+00  0.00000000E+00  0.00000000E+00  2.68413855E-04 -4.78896102E-05
  2.68413855E-04  7.65985704E-20 -1.79719080E-19  0.00000000E+00  0.00000000E+00
  0.00000000E+00 -1.78534506E-19  0.00000000E+00  0.00000000E+00  0.00000000E+00
 -6.67012515E-21  0.00000000E+00  0.00000000E+00  0.00000000E+00  5.59106038E-21
 -9.51337477E-21  5.59106038E-21  2.13591866E-36  2.37954341E-32 -7.18936231E-33